       N       E                     dE             d eps       ncg     rms          rms(c)
DAV:   1     0.103829639900E+04    0.10383E+04   -0.69426E+04  2640   0.113E+03
DAV:   2    -0.372191349843E+02   -0.10755E+04   -0.99910E+03  3024   0.239E+02
DAV:   3    -0.108929599788E+03   -0.71710E+02   -0.67947E+02  3120   0.570E+01
DAV:   4    -0.110972548070E+03   -0.20429E+01   -0.20301E+01  3168   0.954E+00
DAV:   5    -0.111036730188E+03   -0.64182E-01   -0.64150E-01  3240   0.177E+00
DAV:   6    -0.111040093523E+03   -0.33633E-02   -0.33628E-02  3492   0.372E-01
DAV:   7    -0.111040196654E+03   -0.10313E-03   -0.10313E-03  3252   0.647E-02    0.184E+01
RMM:   8    -0.110574835134E+03    0.46536E+00   -0.57435E-02  2652   0.637E-01    0.165E+01
RMM:   9    -0.107935959903E+03    0.26389E+01   -0.41135E+00  2651   0.528E+00    0.311E+00
RMM:  10    -0.107608709918E+03    0.32725E+00   -0.29246E-01  2651   0.101E+00    0.250E+00
RMM:  11    -0.107293301520E+03    0.31541E+00   -0.43190E-01  2652   0.132E+00    0.188E+00
RMM:  12    -0.107230383330E+03    0.62918E-01   -0.42743E-02  2651   0.370E-01    0.173E+00
RMM:  13    -0.107187907022E+03    0.42476E-01   -0.19324E-02  2664   0.233E-01    0.155E+00
RMM:  14    -0.107105399694E+03    0.82507E-01   -0.12318E-01  2656   0.889E-01    0.113E+00
RMM:  15    -0.107078699457E+03    0.26700E-01   -0.42723E-02  2657   0.490E-01    0.936E-01
RMM:  16    -0.107102862570E+03   -0.24163E-01   -0.31487E-02  2657   0.359E-01    0.121E+00
RMM:  17    -0.107054669004E+03    0.48194E-01   -0.44378E-02  2662   0.513E-01    0.466E-01
RMM:  18    -0.107056664614E+03   -0.19956E-02   -0.47975E-03  2668   0.144E-01    0.496E-01
RMM:  19    -0.107047709458E+03    0.89552E-02   -0.88466E-03  2649   0.221E-01    0.409E-01
RMM:  20    -0.107050227998E+03   -0.25185E-02   -0.12141E-03  2652   0.750E-02    0.393E-01
RMM:  21    -0.107054508120E+03   -0.42801E-02   -0.13344E-02  2652   0.192E-01    0.380E-01
RMM:  22    -0.107084568912E+03   -0.30061E-01   -0.14422E-02  2648   0.195E-01    0.711E-01
RMM:  23    -0.107073158298E+03    0.11411E-01   -0.92013E-04  2660   0.636E-02    0.599E-01
RMM:  24    -0.107052280907E+03    0.20877E-01   -0.47870E-03  2651   0.113E-01    0.281E-01
RMM:  25    -0.107048467076E+03    0.38138E-02   -0.16027E-03  2640   0.637E-02    0.138E-01
RMM:  26    -0.107050924314E+03   -0.24572E-02   -0.44034E-03  2647   0.109E-01    0.162E-01
RMM:  27    -0.107051653919E+03   -0.72960E-03   -0.34374E-04  2675   0.319E-02    0.172E-01
RMM:  28    -0.107053542375E+03   -0.18885E-02   -0.40226E-04  2640   0.468E-02    0.189E-01
RMM:  29    -0.107053518519E+03    0.23856E-04   -0.12446E-04  2598   0.279E-02    0.165E-01
RMM:  30    -0.107052027470E+03    0.14910E-02   -0.80794E-04  2640   0.559E-02    0.669E-02
RMM:  31    -0.107051859407E+03    0.16806E-03   -0.11248E-04  2520   0.203E-02    0.481E-02
RMM:  32    -0.107051825986E+03    0.33420E-04   -0.18863E-04  2634   0.294E-02    0.208E-02
RMM:  33    -0.107051831005E+03   -0.50185E-05   -0.32361E-05  1839   0.111E-02
   1 F= -.10705183E+03 E0= -.10704902E+03  d E =-.107052E+03
       N       E                     dE             d eps       ncg     rms          rms(c)
DAV:   1    -0.107077778031E+03   -0.25952E-01   -0.18059E+00  2904   0.315E+00    0.166E-01
RMM:   2    -0.107080071592E+03   -0.22936E-02   -0.23443E-02  2659   0.484E-01    0.100E-01
RMM:   3    -0.107080075511E+03   -0.39195E-05   -0.18605E-03  3646   0.104E-01    0.824E-02
RMM:   4    -0.107080030191E+03    0.45320E-04   -0.29967E-05  1688   0.122E-02    0.687E-02
RMM:   5    -0.107080081231E+03   -0.51040E-04   -0.12522E-04  2618   0.252E-02    0.396E-02
RMM:   6    -0.107080148460E+03   -0.67229E-04   -0.52525E-05  2350   0.191E-02    0.243E-02
RMM:   7    -0.107080199202E+03   -0.50742E-04   -0.56974E-06  1538   0.638E-03    0.190E-02
RMM:   8    -0.107080315270E+03   -0.11607E-03   -0.11482E-05  1618   0.980E-03    0.104E-02
RMM:   9    -0.107080370499E+03   -0.55229E-04   -0.36469E-06  1537   0.516E-03    0.897E-03
RMM:  10    -0.107080495060E+03   -0.12456E-03   -0.10285E-05  1633   0.798E-03    0.139E-02
RMM:  11    -0.107080510388E+03   -0.15328E-04   -0.18383E-06  1507   0.342E-03    0.870E-03
RMM:  12    -0.107080597152E+03   -0.86764E-04   -0.53589E-06  1594   0.502E-03    0.622E-03
RMM:  13    -0.107080673380E+03   -0.76228E-04   -0.27900E-06  1560   0.359E-03    0.478E-03
RMM:  14    -0.107080720502E+03   -0.47122E-04   -0.18328E-06  1250   0.277E-03    0.465E-03
RMM:  15    -0.107080803778E+03   -0.83276E-04   -0.37827E-06  1601   0.388E-03    0.458E-03
RMM:  16    -0.107080816400E+03   -0.12622E-04   -0.37658E-07   628   0.178E-03    0.353E-03
RMM:  17    -0.107080882276E+03   -0.65876E-04   -0.77297E-06  1642   0.564E-03    0.882E-03
RMM:  18    -0.107080887322E+03   -0.50465E-05   -0.14287E-06  1255   0.289E-03
   2 F= -.10708089E+03 E0= -.10707813E+03  d E =-.290563E-01
       N       E                     dE             d eps       ncg     rms          rms(c)
DAV:   1    -0.107023737274E+03    0.57145E-01   -0.17438E+02  2640   0.311E+01    0.152E+00
RMM:   2    -0.107242118596E+03   -0.21838E+00   -0.22598E+00  2659   0.477E+00    0.891E-01
RMM:   3    -0.107257551510E+03   -0.15433E-01   -0.18478E-01  3656   0.105E+00    0.798E-01
RMM:   4    -0.107254978318E+03    0.25732E-02   -0.13712E-03  2680   0.902E-02    0.662E-01
RMM:   5    -0.107249986254E+03    0.49921E-02   -0.75831E-03  2649   0.209E-01    0.274E-01
RMM:   6    -0.107248928735E+03    0.10575E-02   -0.16714E-03  2655   0.100E-01    0.143E-01
RMM:   7    -0.107248747219E+03    0.18152E-03   -0.50710E-04  2657   0.618E-02    0.102E-01
RMM:   8    -0.107248649278E+03    0.97941E-04   -0.13975E-04  2645   0.291E-02    0.792E-02
RMM:   9    -0.107248508970E+03    0.14031E-03   -0.42059E-04  2651   0.485E-02    0.500E-02
RMM:  10    -0.107248466967E+03    0.42002E-04   -0.74972E-05  2628   0.210E-02    0.323E-02
RMM:  11    -0.107248458088E+03    0.88796E-05   -0.40245E-05  2003   0.153E-02
   3 F= -.10724846E+03 E0= -.10724563E+03  d E =-.167571E+00
       N       E                     dE             d eps       ncg     rms          rms(c)
DAV:   1    -0.107253336183E+03   -0.48692E-02   -0.21956E-01  2904   0.112E+00    0.891E-02
RMM:   2    -0.107253635243E+03   -0.29906E-03   -0.30831E-03  2653   0.174E-01    0.511E-02
RMM:   3    -0.107253652550E+03   -0.17307E-04   -0.20491E-04  3143   0.348E-02    0.423E-02
RMM:   4    -0.107253650734E+03    0.18164E-05   -0.14228E-05  1554   0.872E-03    0.270E-02
RMM:   5    -0.107253654591E+03   -0.38572E-05   -0.11222E-05  1534   0.767E-03
   4 F= -.10725365E+03 E0= -.10725083E+03  d E =-.519650E-02
       N       E                     dE             d eps       ncg     rms          rms(c)
DAV:   1    -0.107229281799E+03    0.24369E-01   -0.60923E+01  2640   0.185E+01    0.790E-01
RMM:   2    -0.107305552582E+03   -0.76271E-01   -0.78367E-01  2658   0.284E+00    0.463E-01
RMM:   3    -0.107311064339E+03   -0.55118E-02   -0.63036E-02  3654   0.619E-01    0.446E-01
RMM:   4    -0.107310113054E+03    0.95129E-03   -0.45290E-04  2676   0.510E-02    0.379E-01
RMM:   5    -0.107307784334E+03    0.23287E-02   -0.41497E-03  2652   0.154E-01    0.152E-01
RMM:   6    -0.107307454896E+03    0.32944E-03   -0.95428E-04  2657   0.742E-02    0.969E-02
RMM:   7    -0.107307412142E+03    0.42754E-04   -0.23022E-04  2649   0.415E-02    0.719E-02
RMM:   8    -0.107307384597E+03    0.27545E-04   -0.35426E-05  1796   0.148E-02    0.534E-02
RMM:   9    -0.107307348916E+03    0.35681E-04   -0.13841E-04  2644   0.283E-02    0.314E-02
RMM:  10    -0.107307341769E+03    0.71468E-05   -0.26829E-05  1683   0.128E-02
   5 F= -.10730734E+03 E0= -.10730405E+03  d E =-.536872E-01
       N       E                     dE             d eps       ncg     rms          rms(c)
DAV:   1    -0.107310876498E+03   -0.35276E-02   -0.21145E+00  2760   0.345E+00    0.135E-01
RMM:   2    -0.107313476936E+03   -0.26004E-02   -0.26476E-02  2658   0.524E-01    0.839E-02
RMM:   3    -0.107313665825E+03   -0.18889E-03   -0.20613E-03  3654   0.112E-01    0.858E-02
RMM:   4    -0.107313640465E+03    0.25360E-04   -0.10837E-05  1653   0.832E-03    0.762E-02
RMM:   5    -0.107313556979E+03    0.83487E-04   -0.25706E-04  2645   0.385E-02    0.277E-02
RMM:   6    -0.107313560377E+03   -0.33985E-05   -0.15542E-05  1510   0.109E-02
   6 F= -.10731356E+03 E0= -.10731020E+03  d E =-.621861E-02
       N       E                     dE             d eps       ncg     rms          rms(c)
DAV:   1    -0.107317333702E+03   -0.37767E-02   -0.17491E+00  2640   0.315E+00    0.128E-01
RMM:   2    -0.107319403562E+03   -0.20699E-02   -0.21036E-02  2660   0.469E-01    0.705E-02
RMM:   3    -0.107319541293E+03   -0.13773E-03   -0.14747E-03  3653   0.932E-02    0.671E-02
RMM:   4    -0.107319525588E+03    0.15704E-04   -0.84924E-06  1652   0.706E-03    0.593E-02
RMM:   5    -0.107319477340E+03    0.48248E-04   -0.15541E-04  2641   0.298E-02    0.211E-02
RMM:   6    -0.107319479750E+03   -0.24103E-05   -0.82693E-06  1502   0.802E-03
   7 F= -.10731948E+03 E0= -.10731618E+03  d E =-.591937E-02
       N       E                     dE             d eps       ncg     rms          rms(c)
DAV:   1    -0.107320647564E+03   -0.11702E-02   -0.47911E+00  2640   0.522E+00    0.198E-01
RMM:   2    -0.107326313730E+03   -0.56662E-02   -0.57688E-02  2660   0.777E-01    0.111E-01
RMM:   3    -0.107326700116E+03   -0.38639E-03   -0.41911E-03  3654   0.158E-01    0.110E-01
RMM:   4    -0.107326645541E+03    0.54576E-04   -0.24642E-05  1717   0.122E-02    0.966E-02
RMM:   5    -0.107326468090E+03    0.17745E-03   -0.44397E-04  2644   0.502E-02    0.375E-02
RMM:   6    -0.107326461514E+03    0.65759E-05   -0.32777E-05  1737   0.154E-02
   8 F= -.10732646E+03 E0= -.10732322E+03  d E =-.698176E-02
       N       E                     dE             d eps       ncg     rms          rms(c)
DAV:   1    -0.107327807438E+03   -0.13393E-02   -0.41950E-01  2784   0.153E+00    0.672E-02
RMM:   2    -0.107328299270E+03   -0.49183E-03   -0.50705E-03  2657   0.229E-01    0.408E-02
RMM:   3    -0.107328334911E+03   -0.35641E-04   -0.40531E-04  3629   0.496E-02    0.351E-02
RMM:   4    -0.107328327649E+03    0.72629E-05   -0.59796E-06  1521   0.638E-03    0.256E-02
RMM:   5    -0.107328325187E+03    0.24619E-05   -0.13998E-05  1525   0.868E-03
   9 F= -.10732833E+03 E0= -.10732508E+03  d E =-.186367E-02
       N       E                     dE             d eps       ncg     rms          rms(c)
DAV:   1    -0.107321318372E+03    0.70093E-02   -0.11049E+01  2640   0.786E+00    0.303E-01
RMM:   2    -0.107334547305E+03   -0.13229E-01   -0.13543E-01  2659   0.118E+00    0.189E-01
RMM:   3    -0.107335518196E+03   -0.97089E-03   -0.10824E-02  3654   0.257E-01    0.187E-01
RMM:   4    -0.107335331545E+03    0.18665E-03   -0.74446E-05  2556   0.218E-02    0.155E-01
RMM:   5    -0.107334953764E+03    0.37778E-03   -0.78780E-04  2643   0.667E-02    0.610E-02
RMM:   6    -0.107334919186E+03    0.34578E-04   -0.14143E-04  2639   0.298E-02    0.397E-02
RMM:   7    -0.107334915092E+03    0.40940E-05   -0.31784E-05  1720   0.164E-02
  10 F= -.10733492E+03 E0= -.10733165E+03  d E =-.658991E-02
       N       E                     dE             d eps       ncg     rms          rms(c)
DAV:   1    -0.107335029998E+03   -0.11081E-03   -0.84712E-03  2904   0.217E-01    0.243E-02
RMM:   2    -0.107335039479E+03   -0.94815E-05   -0.10740E-04  2498   0.333E-02    0.204E-02
RMM:   3    -0.107335039158E+03    0.32149E-06   -0.80999E-06  1408   0.809E-03    0.166E-02
RMM:   4    -0.107335040185E+03   -0.10275E-05   -0.14844E-05  1546   0.890E-03    0.954E-03
RMM:   5    -0.107335046945E+03   -0.67597E-05   -0.93717E-06  1525   0.720E-03
  11 F= -.10733505E+03 E0= -.10733178E+03  d E =-.131853E-03
       N       E                     dE             d eps       ncg     rms          rms(c)
DAV:   1    -0.107329757797E+03    0.52824E-02   -0.26140E+00  2640   0.383E+00    0.145E-01
RMM:   2    -0.107332837986E+03   -0.30802E-02   -0.31459E-02  2659   0.572E-01    0.911E-02
RMM:   3    -0.107333059632E+03   -0.22165E-03   -0.24488E-03  3654   0.122E-01    0.892E-02
RMM:   4    -0.107333013388E+03    0.46245E-04   -0.18197E-05  1646   0.116E-02    0.720E-02
RMM:   5    -0.107332940132E+03    0.73256E-04   -0.17948E-04  2640   0.317E-02    0.301E-02
RMM:   6    -0.107332936071E+03    0.40615E-05   -0.22025E-05  1550   0.131E-02
  12 F= -.10733294E+03 E0= -.10732966E+03  d E =0.211087E-02
       N       E                     dE             d eps       ncg     rms          rms(c)
DAV:   1    -0.107333446066E+03   -0.50593E-03   -0.11100E-01  2832   0.787E-01    0.320E-02
RMM:   2    -0.107333582804E+03   -0.13674E-03   -0.13741E-03  2657   0.119E-01    0.233E-02
RMM:   3    -0.107333592715E+03   -0.99104E-05   -0.96429E-05  2600   0.256E-02    0.229E-02
RMM:   4    -0.107333594417E+03   -0.17024E-05   -0.75162E-06  1460   0.824E-03    0.158E-02
RMM:   5    -0.107333599475E+03   -0.50575E-05   -0.66852E-06  1494   0.703E-03
  13 F= -.10733360E+03 E0= -.10733031E+03  d E =-.663404E-03
       N       E                     dE             d eps       ncg     rms          rms(c)
DAV:   1    -0.107333833132E+03   -0.23872E-03   -0.89007E-01  2640   0.224E+00    0.829E-02
RMM:   2    -0.107334882979E+03   -0.10498E-02   -0.10701E-02  2659   0.334E-01    0.513E-02
RMM:   3    -0.107334959864E+03   -0.76885E-04   -0.82669E-04  3654   0.709E-02    0.514E-02
RMM:   4    -0.107334947671E+03    0.12193E-04   -0.49032E-06  1605   0.617E-03    0.429E-02
RMM:   5    -0.107334927556E+03    0.20115E-04   -0.76392E-05  2552   0.209E-02    0.166E-02
RMM:   6    -0.107334929139E+03   -0.15822E-05   -0.65780E-06  1469   0.730E-03
  14 F= -.10733493E+03 E0= -.10733165E+03  d E =-.132966E-02
       N       E                     dE             d eps       ncg     rms          rms(c)
DAV:   1    -0.107335143628E+03   -0.21607E-03   -0.11585E-02  2904   0.258E-01    0.148E-02
RMM:   2    -0.107335157499E+03   -0.13871E-04   -0.13968E-04  2598   0.381E-02    0.970E-03
RMM:   3    -0.107335158974E+03   -0.14753E-05   -0.75268E-06  1396   0.809E-03    0.796E-03
RMM:   4    -0.107335163128E+03   -0.41533E-05   -0.34295E-06  1478   0.512E-03    0.380E-03
RMM:   5    -0.107335165947E+03   -0.28191E-05   -0.13675E-06  1459   0.311E-03
  15 F= -.10733517E+03 E0= -.10733189E+03  d E =-.236808E-03
       N       E                     dE             d eps       ncg     rms          rms(c)
DAV:   1    -0.107335376202E+03   -0.21307E-03   -0.15462E-01  2640   0.938E-01    0.400E-02
RMM:   2    -0.107335569465E+03   -0.19326E-03   -0.19731E-03  2657   0.143E-01    0.245E-02
RMM:   3    -0.107335582270E+03   -0.12805E-04   -0.13678E-04  2747   0.301E-02    0.227E-02
RMM:   4    -0.107335580880E+03    0.13900E-05   -0.88030E-06  1463   0.882E-03    0.164E-02
RMM:   5    -0.107335580146E+03    0.73418E-06   -0.47252E-06  1475   0.606E-03
  16 F= -.10733558E+03 E0= -.10733231E+03  d E =-.414199E-03
       N       E                     dE             d eps       ncg     rms          rms(c)
DAV:   1    -0.107336231806E+03   -0.65093E-03   -0.22216E-01  2640   0.112E+00    0.413E-02
RMM:   2    -0.107336499042E+03   -0.26724E-03   -0.27188E-03  2658   0.168E-01    0.244E-02
RMM:   3    -0.107336517816E+03   -0.18774E-04   -0.19708E-04  3174   0.353E-02    0.244E-02
RMM:   4    -0.107336515942E+03    0.18744E-05   -0.55382E-06  1447   0.637E-03    0.207E-02
RMM:   5    -0.107336512480E+03    0.34621E-05   -0.15657E-05  1485   0.104E-02
  17 F= -.10733651E+03 E0= -.10733325E+03  d E =-.932334E-03
       N       E                     dE             d eps       ncg     rms          rms(c)
DAV:   1    -0.107337034674E+03   -0.51873E-03   -0.34172E-01  2640   0.139E+00    0.513E-02
RMM:   2    -0.107337438663E+03   -0.40399E-03   -0.41188E-03  2658   0.207E-01    0.300E-02
RMM:   3    -0.107337468786E+03   -0.30124E-04   -0.31807E-04  3601   0.441E-02    0.294E-02
RMM:   4    -0.107337464771E+03    0.40153E-05   -0.22506E-06  1458   0.404E-03    0.249E-02
RMM:   5    -0.107337457418E+03    0.73525E-05   -0.28171E-05  1600   0.135E-02
  18 F= -.10733746E+03 E0= -.10733420E+03  d E =-.944939E-03
       N       E                     dE             d eps       ncg     rms          rms(c)
DAV:   1    -0.107337641337E+03   -0.17657E-03   -0.59236E-01  2640   0.182E+00    0.706E-02
RMM:   2    -0.107338338102E+03   -0.69676E-03   -0.71371E-03  2659   0.272E-01    0.434E-02
RMM:   3    -0.107338389689E+03   -0.51587E-04   -0.56418E-04  3651   0.586E-02    0.415E-02
RMM:   4    -0.107338380143E+03    0.95463E-05   -0.39062E-06  1520   0.546E-03    0.335E-02
RMM:   5    -0.107338366351E+03    0.13793E-04   -0.38717E-05  1918   0.152E-02    0.144E-02
RMM:   6    -0.107338365394E+03    0.95614E-06   -0.79932E-06  1450   0.829E-03
  19 F= -.10733837E+03 E0= -.10733511E+03  d E =-.907976E-03
       N       E                     dE             d eps       ncg     rms          rms(c)
DAV:   1    -0.107338372294E+03   -0.59435E-05   -0.75726E-01  2640   0.207E+00    0.759E-02
RMM:   2    -0.107339270362E+03   -0.89807E-03   -0.91786E-03  2659   0.309E-01    0.434E-02
RMM:   3    -0.107339337222E+03   -0.66860E-04   -0.71877E-04  3654   0.662E-02    0.426E-02
RMM:   4    -0.107339327459E+03    0.97629E-05   -0.37719E-06  1587   0.539E-03    0.361E-02
RMM:   5    -0.107339307069E+03    0.20390E-04   -0.59690E-05  2477   0.185E-02    0.159E-02
RMM:   6    -0.107339305456E+03    0.16126E-05   -0.61517E-06  1442   0.714E-03
  20 F= -.10733931E+03 E0= -.10733605E+03  d E =-.940062E-03
       N       E                     dE             d eps       ncg     rms          rms(c)
DAV:   1    -0.107339544283E+03   -0.23721E-03   -0.13526E-01  2712   0.876E-01    0.351E-02
RMM:   2    -0.107339706539E+03   -0.16226E-03   -0.16615E-03  2660   0.131E-01    0.189E-02
RMM:   3    -0.107339717302E+03   -0.10763E-04   -0.11640E-04  2670   0.280E-02    0.164E-02
RMM:   4    -0.107339715781E+03    0.15210E-05   -0.82635E-06  1426   0.856E-03    0.120E-02
RMM:   5    -0.107339714356E+03    0.14249E-05   -0.43424E-06  1430   0.558E-03
  21 F= -.10733971E+03 E0= -.10733645E+03  d E =-.408899E-03
       N       E                     dE             d eps       ncg     rms          rms(c)
DAV:   1    -0.107339858694E+03   -0.14291E-03   -0.26681E-02  2784   0.390E-01    0.180E-02
RMM:   2    -0.107339891892E+03   -0.33198E-04   -0.33918E-04  2652   0.592E-02    0.107E-02
RMM:   3    -0.107339893411E+03   -0.15192E-05   -0.17425E-05  1377   0.123E-02    0.956E-03
RMM:   4    -0.107339893187E+03    0.22491E-06   -0.51171E-06  1427   0.679E-03    0.582E-03
RMM:   5    -0.107339893234E+03   -0.47750E-07   -0.18130E-06  1428   0.378E-03
  22 F= -.10733989E+03 E0= -.10733662E+03  d E =-.178878E-03
       N       E                     dE             d eps       ncg     rms          rms(c)
DAV:   1    -0.107340155901E+03   -0.26271E-03   -0.28082E-01  2640   0.126E+00    0.487E-02
RMM:   2    -0.107340502686E+03   -0.34678E-03   -0.35327E-03  2660   0.191E-01    0.279E-02
RMM:   3    -0.107340527854E+03   -0.25168E-04   -0.26848E-04  3521   0.405E-02    0.280E-02
RMM:   4    -0.107340525232E+03    0.26222E-05   -0.24061E-06  1379   0.384E-03    0.253E-02
RMM:   5    -0.107340515203E+03    0.10029E-04   -0.30144E-05  1619   0.141E-02    0.993E-03
RMM:   6    -0.107340515116E+03    0.87237E-07   -0.47144E-06  1430   0.663E-03
  23 F= -.10734052E+03 E0= -.10733722E+03  d E =-.621881E-03
       N       E                     dE             d eps       ncg     rms          rms(c)
DAV:   1    -0.107340371155E+03    0.14405E-03   -0.26812E-02  2688   0.389E-01    0.140E-02
RMM:   2    -0.107340403497E+03   -0.32342E-04   -0.32968E-04  2640   0.588E-02    0.105E-02
RMM:   3    -0.107340404970E+03   -0.14726E-05   -0.17428E-05  1374   0.124E-02    0.104E-02
RMM:   4    -0.107340404288E+03    0.68189E-06   -0.42152E-06  1418   0.639E-03    0.630E-03
RMM:   5    -0.107340403699E+03    0.58897E-06   -0.16336E-06  1431   0.379E-03
  24 F= -.10734040E+03 E0= -.10733711E+03  d E =0.111417E-03
       N       E                     dE             d eps       ncg     rms          rms(c)
DAV:   1    -0.107340508594E+03   -0.10431E-03   -0.13246E-02  2760   0.274E-01    0.103E-02
RMM:   2    -0.107340524685E+03   -0.16091E-04   -0.16306E-04  2596   0.412E-02    0.594E-03
RMM:   3    -0.107340525618E+03   -0.93242E-06   -0.89037E-06  1361   0.888E-03    0.532E-03
RMM:   4    -0.107340526115E+03   -0.49701E-06   -0.25594E-06  1403   0.484E-03    0.321E-03
RMM:   5    -0.107340526565E+03   -0.45016E-06   -0.84557E-07  1248   0.277E-03
  25 F= -.10734053E+03 E0= -.10733722E+03  d E =-.122866E-03
       N       E                     dE             d eps       ncg     rms          rms(c)
DAV:   1    -0.107340666225E+03   -0.14011E-03   -0.56781E-02  2640   0.568E-01    0.204E-02
RMM:   2    -0.107340735038E+03   -0.68813E-04   -0.69824E-04  2659   0.852E-02    0.118E-02
RMM:   3    -0.107340738831E+03   -0.37928E-05   -0.40299E-05  1791   0.177E-02    0.112E-02
RMM:   4    -0.107340738400E+03    0.43009E-06   -0.65103E-06  1403   0.776E-03    0.806E-03
RMM:   5    -0.107340737632E+03    0.76875E-06   -0.30289E-06  1429   0.503E-03
  26 F= -.10734074E+03 E0= -.10733742E+03  d E =-.211067E-03
       N       E                     dE             d eps       ncg     rms          rms(c)
DAV:   1    -0.107340881336E+03   -0.14294E-03   -0.55723E-02  2640   0.561E-01    0.199E-02
RMM:   2    -0.107340948592E+03   -0.67255E-04   -0.68262E-04  2660   0.841E-02    0.117E-02
RMM:   3    -0.107340952397E+03   -0.38048E-05   -0.40305E-05  1786   0.177E-02    0.111E-02
RMM:   4    -0.107340951906E+03    0.49097E-06   -0.63932E-06  1400   0.772E-03    0.798E-03
RMM:   5    -0.107340951222E+03    0.68313E-06   -0.32044E-06  1426   0.509E-03
  27 F= -.10734095E+03 E0= -.10733762E+03  d E =-.213591E-03
