alloy-surf                              
           1
     8.392900    0.000000    0.000000
     0.002001    7.123600    0.000000
     0.000000    0.000000   16.323999
   In   Pd
   8  16
Direct configuration=     1
   0.39873999  0.50483000  0.00000000
   0.89907002  0.23477000  0.07430000
   0.10028000  0.82758999  0.10429000
   0.60031003  0.55791998  0.17871000
   0.39882001  0.15073000  0.20870000
   0.89915001  0.88067001  0.28299001
   0.10036000  0.47349000  0.31298000
   0.60039002  0.20382001  0.38741001
   0.07184000  0.51801002  0.00426000
   0.72974998  0.57587999  0.02296000
   0.23006000  0.16347000  0.05126000
   0.57196999  0.22160000  0.07004000
   0.42738000  0.84114999  0.10867000
   0.76928997  0.89903003  0.12737000
   0.26940000  0.48635000  0.15558000
   0.92730999  0.54435003  0.17433000
   0.07192000  0.16391000  0.21296000
   0.72983003  0.22178000  0.23164999
   0.23014000  0.80936998  0.25995001
   0.57204998  0.86750001  0.27873999
   0.42747000  0.48705000  0.31737000
   0.76937002  0.54492998  0.33607000
   0.26947999  0.13225000  0.36427999
   0.92738998  0.19024999  0.38302001
Direct configuration=     2
   0.39873999  0.50483000  0.00000000
   0.89907002  0.23477000  0.07430000
   0.10028000  0.82758999  0.10429000
   0.60031003  0.55791998  0.17871000
   0.39874704  0.15062086  0.20881100
   0.89934092  0.88046790  0.28338645
   0.10065668  0.47326820  0.31340785
   0.60025210  0.20354752  0.38732581
   0.07184000  0.51801002  0.00426000
   0.72974998  0.57587999  0.02296000
   0.23006000  0.16347000  0.05126000
   0.57196999  0.22160000  0.07004000
   0.42738000  0.84114999  0.10867000
   0.76928997  0.89903003  0.12737000
   0.26940000  0.48635000  0.15558000
   0.92730999  0.54435003  0.17433000
   0.07203193  0.16366040  0.21304932
   0.73014696  0.22160002  0.23172371
   0.23017825  0.80922649  0.26009123
   0.57185131  0.86742847  0.27898713
   0.42749511  0.48718549  0.31709145
   0.76938281  0.54464792  0.33569331
   0.26965947  0.13269336  0.36374998
   0.92717921  0.19032674  0.38239487
Direct configuration=     3
   0.39873999  0.50483000  0.00000000
   0.89907002  0.23477000  0.07430000
   0.10028000  0.82758999  0.10429000
   0.60031003  0.55791998  0.17871000
   0.39839316  0.14947793  0.20963476
   0.90119001  0.87810617  0.28709873
   0.10371121  0.47154986  0.31749283
   0.59877580  0.20089736  0.38644567
   0.07184000  0.51801002  0.00426000
   0.72974998  0.57587999  0.02296000
   0.23006000  0.16347000  0.05126000
   0.57196999  0.22160000  0.07004000
   0.42738000  0.84114999  0.10867000
   0.76928997  0.89903003  0.12737000
   0.26940000  0.48635000  0.15558000
   0.92730999  0.54435003  0.17433000
   0.07304242  0.16123297  0.21380565
   0.73300701  0.21972086  0.23228038
   0.23051370  0.80748084  0.26146664
   0.56993105  0.86666767  0.28148063
   0.42794792  0.48853074  0.31435053
   0.76949906  0.54194900  0.33197990
   0.27133605  0.13703369  0.35864701
   0.92500463  0.19119761  0.37630058
Direct configuration=     4
   0.39873999  0.50483000  0.00000000
   0.89907002  0.23477000  0.07430000
   0.10028000  0.82758999  0.10429000
   0.60031003  0.55791998  0.17871000
   0.39877154  0.14940586  0.20931677
   0.90113759  0.87760195  0.28702197
   0.10383780  0.47200821  0.31741318
   0.59867911  0.20087422  0.38639490
   0.07184000  0.51801002  0.00426000
   0.72974998  0.57587999  0.02296000
   0.23006000  0.16347000  0.05126000
   0.57196999  0.22160000  0.07004000
   0.42738000  0.84114999  0.10867000
   0.76928997  0.89903003  0.12737000
   0.26940000  0.48635000  0.15558000
   0.92730999  0.54435003  0.17433000
   0.07291783  0.16119869  0.21367014
   0.73294451  0.21944936  0.23209149
   0.23044155  0.80724972  0.26146210
   0.56999477  0.86666043  0.28156269
   0.42809543  0.48863085  0.31436266
   0.76945843  0.54193248  0.33192945
   0.27130154  0.13699092  0.35879202
   0.92483833  0.19120870  0.37629046
Direct configuration=     5
   0.39873999  0.50483000  0.00000000
   0.89907002  0.23477000  0.07430000
   0.10028000  0.82758999  0.10429000
   0.60031003  0.55791998  0.17871000
   0.40114904  0.14821238  0.20750081
   0.90189332  0.87290376  0.28846726
   0.10641916  0.47414340  0.31904448
   0.59706293  0.19920586  0.38547376
   0.07184000  0.51801002  0.00426000
   0.72974998  0.57587999  0.02296000
   0.23006000  0.16347000  0.05126000
   0.57196999  0.22160000  0.07004000
   0.42738000  0.84114999  0.10867000
   0.76928997  0.89903003  0.12737000
   0.26940000  0.48635000  0.15558000
   0.92730999  0.54435003  0.17433000
   0.07271197  0.15952977  0.21322362
   0.73409703  0.21638379  0.23101616
   0.23018786  0.80482982  0.26217996
   0.56933312  0.86622337  0.28358669
   0.42941844  0.49006636  0.31295872
   0.76918311  0.54005420  0.32951518
   0.27200193  0.13912201  0.35688809
   0.92244450  0.19177007  0.37272803
Direct configuration=     6
   0.39873999  0.50483000  0.00000000
   0.89907002  0.23477000  0.07430000
   0.10028000  0.82758999  0.10429000
   0.60031003  0.55791998  0.17871000
   0.40155319  0.14793168  0.20710385
   0.90201460  0.87192469  0.28859804
   0.10682725  0.47452134  0.31927140
   0.59668621  0.19891692  0.38524204
   0.07184000  0.51801002  0.00426000
   0.72974998  0.57587999  0.02296000
   0.23006000  0.16347000  0.05126000
   0.57196999  0.22160000  0.07004000
   0.42738000  0.84114999  0.10867000
   0.76928997  0.89903003  0.12737000
   0.26940000  0.48635000  0.15558000
   0.92730999  0.54435003  0.17433000
   0.07274148  0.15917014  0.21309333
   0.73416807  0.21565745  0.23067290
   0.23019501  0.80451894  0.26228163
   0.56921124  0.86620301  0.28399452
   0.42975783  0.49026819  0.31281085
   0.76906517  0.53955728  0.32911456
   0.27212094  0.13941621  0.35654282
   0.92198527  0.19194080  0.37209273
Direct configuration=     7
   0.39873999  0.50483000  0.00000000
   0.89907002  0.23477000  0.07430000
   0.10028000  0.82758999  0.10429000
   0.60031003  0.55791998  0.17871000
   0.40145736  0.14768375  0.20681947
   0.90208174  0.87123480  0.28823310
   0.10676442  0.47449543  0.31912494
   0.59631484  0.19886734  0.38491109
   0.07184000  0.51801002  0.00426000
   0.72974998  0.57587999  0.02296000
   0.23006000  0.16347000  0.05126000
   0.57196999  0.22160000  0.07004000
   0.42738000  0.84114999  0.10867000
   0.76928997  0.89903003  0.12737000
   0.26940000  0.48635000  0.15558000
   0.92730999  0.54435003  0.17433000
   0.07298591  0.15882537  0.21288557
   0.73375140  0.21485921  0.23006567
   0.23039316  0.80480988  0.26223707
   0.56917555  0.86632074  0.28426862
   0.43017799  0.49019888  0.31310658
   0.76878584  0.53877414  0.32907653
   0.27213230  0.13927216  0.35636593
   0.92178075  0.19213731  0.37184806
Direct configuration=     8
   0.39873999  0.50483000  0.00000000
   0.89907002  0.23477000  0.07430000
   0.10028000  0.82758999  0.10429000
   0.60031003  0.55791998  0.17871000
   0.40140187  0.14721643  0.20634411
   0.90225556  0.87003858  0.28780313
   0.10688413  0.47453121  0.31901662
   0.59570239  0.19863774  0.38435815
   0.07184000  0.51801002  0.00426000
   0.72974998  0.57587999  0.02296000
   0.23006000  0.16347000  0.05126000
   0.57196999  0.22160000  0.07004000
   0.42738000  0.84114999  0.10867000
   0.76928997  0.89903003  0.12737000
   0.26940000  0.48635000  0.15558000
   0.92730999  0.54435003  0.17433000
   0.07331102  0.15821105  0.21257461
   0.73321457  0.21354991  0.22914608
   0.23071051  0.80506977  0.26221472
   0.56908494  0.86645087  0.28479726
   0.43079101  0.49025158  0.31343657
   0.76836503  0.53749976  0.32885676
   0.27216444  0.13918425  0.35594754
   0.92132589  0.19234098  0.37119620
Direct configuration=     9
   0.39873999  0.50483000  0.00000000
   0.89907002  0.23477000  0.07430000
   0.10028000  0.82758999  0.10429000
   0.60031003  0.55791998  0.17871000
   0.40138744  0.14710198  0.20629393
   0.90233041  0.86981640  0.28780047
   0.10706042  0.47451507  0.31905136
   0.59560893  0.19846744  0.38420830
   0.07184000  0.51801002  0.00426000
   0.72974998  0.57587999  0.02296000
   0.23006000  0.16347000  0.05126000
   0.57196999  0.22160000  0.07004000
   0.42738000  0.84114999  0.10867000
   0.76928997  0.89903003  0.12737000
   0.26940000  0.48635000  0.15558000
   0.92730999  0.54435003  0.17433000
   0.07331432  0.15803023  0.21253010
   0.73319110  0.21330350  0.22902185
   0.23079891  0.80498877  0.26223436
   0.56904355  0.86641293  0.28496296
   0.43081535  0.49039426  0.31341577
   0.76832110  0.53721734  0.32872355
   0.27215836  0.13923958  0.35574987
   0.92112021  0.19223071  0.37086823
Direct configuration=    10
   0.39873999  0.50483000  0.00000000
   0.89907002  0.23477000  0.07430000
   0.10028000  0.82758999  0.10429000
   0.60031003  0.55791998  0.17871000
   0.40128809  0.14651224  0.20603337
   0.90270739  0.86854452  0.28773759
   0.10787993  0.47439016  0.31918203
   0.59510999  0.19756980  0.38338390
   0.07184000  0.51801002  0.00426000
   0.72974998  0.57587999  0.02296000
   0.23006000  0.16347000  0.05126000
   0.57196999  0.22160000  0.07004000
   0.42738000  0.84114999  0.10867000
   0.76928997  0.89903003  0.12737000
   0.26940000  0.48635000  0.15558000
   0.92730999  0.54435003  0.17433000
   0.07330673  0.15709192  0.21225394
   0.73299776  0.21205457  0.22833821
   0.23126068  0.80459631  0.26232538
   0.56882491  0.86621517  0.28581076
   0.43096500  0.49113969  0.31333886
   0.76804068  0.53573065  0.32806088
   0.27212604  0.13948615  0.35477124
   0.92010311  0.19166038  0.36918775
Direct configuration=    11
   0.39873999  0.50483000  0.00000000
   0.89907002  0.23477000  0.07430000
   0.10028000  0.82758999  0.10429000
   0.60031003  0.55791998  0.17871000
   0.40127710  0.14651729  0.20604089
   0.90271248  0.86849759  0.28774063
   0.10789754  0.47436226  0.31918570
   0.59510930  0.19752978  0.38336231
   0.07184000  0.51801002  0.00426000
   0.72974998  0.57587999  0.02296000
   0.23006000  0.16347000  0.05126000
   0.57196999  0.22160000  0.07004000
   0.42738000  0.84114999  0.10867000
   0.76928997  0.89903003  0.12737000
   0.26940000  0.48635000  0.15558000
   0.92730999  0.54435003  0.17433000
   0.07328767  0.15707246  0.21224225
   0.73298727  0.21207369  0.22833782
   0.23127595  0.80456689  0.26232641
   0.56882456  0.86618828  0.28582777
   0.43094058  0.49118138  0.31333015
   0.76803441  0.53572813  0.32804740
   0.27211211  0.13948301  0.35475286
   0.92009831  0.19160689  0.36913589
Direct configuration=    12
   0.39873999  0.50483000  0.00000000
   0.89907002  0.23477000  0.07430000
   0.10028000  0.82758999  0.10429000
   0.60031003  0.55791998  0.17871000
   0.40124640  0.14686280  0.20622499
   0.90252269  0.86895859  0.28776574
   0.10750452  0.47425503  0.31911503
   0.59539320  0.19782016  0.38368811
   0.07184000  0.51801002  0.00426000
   0.72974998  0.57587999  0.02296000
   0.23006000  0.16347000  0.05126000
   0.57196999  0.22160000  0.07004000
   0.42738000  0.84114999  0.10867000
   0.76928997  0.89903003  0.12737000
   0.26940000  0.48635000  0.15558000
   0.92730999  0.54435003  0.17433000
   0.07319977  0.15750214  0.21232374
   0.73300038  0.21290231  0.22871030
   0.23107218  0.80468377  0.26225445
   0.56895315  0.86615762  0.28540642
   0.43073563  0.49093918  0.31335304
   0.76815453  0.53655557  0.32838264
   0.27204400  0.13928415  0.35523139
   0.92067781  0.19169799  0.36987314
Direct configuration=    13
   0.39873999  0.50483000  0.00000000
   0.89907002  0.23477000  0.07430000
   0.10028000  0.82758999  0.10429000
   0.60031003  0.55791998  0.17871000
   0.40117100  0.14686363  0.20624807
   0.90254533  0.86872746  0.28774397
   0.10755100  0.47409755  0.31911205
   0.59538981  0.19762364  0.38357082
   0.07184000  0.51801002  0.00426000
   0.72974998  0.57587999  0.02296000
   0.23006000  0.16347000  0.05126000
   0.57196999  0.22160000  0.07004000
   0.42738000  0.84114999  0.10867000
   0.76928997  0.89903003  0.12737000
   0.26940000  0.48635000  0.15558000
   0.92730999  0.54435003  0.17433000
   0.07312179  0.15741509  0.21225863
   0.73290915  0.21301284  0.22869251
   0.23111550  0.80459547  0.26223816
   0.56896234  0.86603928  0.28544401
   0.43063670  0.49108756  0.31334414
   0.76812466  0.53655817  0.32835567
   0.27196057  0.13922335  0.35517982
   0.92068239  0.19148744  0.36970013
Direct configuration=    14
   0.39873999  0.50483000  0.00000000
   0.89907002  0.23477000  0.07430000
   0.10028000  0.82758999  0.10429000
   0.60031003  0.55791998  0.17871000
   0.40121316  0.14665087  0.20611058
   0.90265064  0.86849927  0.28770765
   0.10774764  0.47422020  0.31914036
   0.59519787  0.19753544  0.38340974
   0.07184000  0.51801002  0.00426000
   0.72974998  0.57587999  0.02296000
   0.23006000  0.16347000  0.05126000
   0.57196999  0.22160000  0.07004000
   0.42738000  0.84114999  0.10867000
   0.76928997  0.89903003  0.12737000
   0.26940000  0.48635000  0.15558000
   0.92730999  0.54435003  0.17433000
   0.07322099  0.15717327  0.21222318
   0.73290348  0.21243108  0.22843654
   0.23123440  0.80458219  0.26228423
   0.56888312  0.86611366  0.28569296
   0.43082652  0.49116417  0.31335911
   0.76804399  0.53602294  0.32817176
   0.27203135  0.13934804  0.35491525
   0.92033441  0.19152424  0.36932395
Direct configuration=    15
   0.39873999  0.50483000  0.00000000
   0.89907002  0.23477000  0.07430000
   0.10028000  0.82758999  0.10429000
   0.60031003  0.55791998  0.17871000
   0.40119727  0.14663682  0.20609222
   0.90265567  0.86842961  0.28767567
   0.10773321  0.47420231  0.31912573
   0.59516889  0.19752250  0.38338172
   0.07184000  0.51801002  0.00426000
   0.72974998  0.57587999  0.02296000
   0.23006000  0.16347000  0.05126000
   0.57196999  0.22160000  0.07004000
   0.42738000  0.84114999  0.10867000
   0.76928997  0.89903003  0.12737000
   0.26940000  0.48635000  0.15558000
   0.92730999  0.54435003  0.17433000
   0.07322642  0.15713853  0.21220216
   0.73286398  0.21238761  0.22839199
   0.23126039  0.80458801  0.26228203
   0.56888481  0.86611525  0.28571780
   0.43084149  0.49117720  0.31338353
   0.76801745  0.53596806  0.32816852
   0.27202257  0.13932512  0.35490417
   0.92032217  0.19150042  0.36928742
Direct configuration=    16
   0.39873999  0.50483000  0.00000000
   0.89907002  0.23477000  0.07430000
   0.10028000  0.82758999  0.10429000
   0.60031003  0.55791998  0.17871000
   0.40108777  0.14674033  0.20611254
   0.90261042  0.86819996  0.28753192
   0.10757191  0.47398940  0.31902643
   0.59514638  0.19746833  0.38331786
   0.07184000  0.51801002  0.00426000
   0.72974998  0.57587999  0.02296000
   0.23006000  0.16347000  0.05126000
   0.57196999  0.22160000  0.07004000
   0.42738000  0.84114999  0.10867000
   0.76928997  0.89903003  0.12737000
   0.26940000  0.48635000  0.15558000
   0.92730999  0.54435003  0.17433000
   0.07317739  0.15710684  0.21212612
   0.73265446  0.21258480  0.22834774
   0.23131159  0.80460116  0.26223582
   0.56894451  0.86605973  0.28566399
   0.43075987  0.49121018  0.31348468
   0.76795104  0.53603925  0.32827286
   0.27191609  0.13911359  0.35501058
   0.92047403  0.19130705  0.36932510
Direct configuration=    17
   0.39873999  0.50483000  0.00000000
   0.89907002  0.23477000  0.07430000
   0.10028000  0.82758999  0.10429000
   0.60031003  0.55791998  0.17871000
   0.40101985  0.14670095  0.20605344
   0.90263672  0.86788937  0.28740141
   0.10754873  0.47387984  0.31895952
   0.59502507  0.19737361  0.38317246
   0.07184000  0.51801002  0.00426000
   0.72974998  0.57587999  0.02296000
   0.23006000  0.16347000  0.05126000
   0.57196999  0.22160000  0.07004000
   0.42738000  0.84114999  0.10867000
   0.76928997  0.89903003  0.12737000
   0.26940000  0.48635000  0.15558000
   0.92730999  0.54435003  0.17433000
   0.07318568  0.15693646  0.21204250
   0.73248018  0.21242968  0.22817237
   0.23142196  0.80459249  0.26222242
   0.56894628  0.86605073  0.28576389
   0.43078798  0.49129703  0.31356892
   0.76784657  0.53579265  0.32825517
   0.27186698  0.13900779  0.35495137
   0.92039945  0.19114987  0.36913533
Direct configuration=    18
   0.39873999  0.50483000  0.00000000
   0.89907002  0.23477000  0.07430000
   0.10028000  0.82758999  0.10429000
   0.60031003  0.55791998  0.17871000
   0.40097146  0.14662963  0.20598902
   0.90269378  0.86759075  0.28730495
   0.10758643  0.47379863  0.31890852
   0.59490427  0.19724528  0.38300890
   0.07184000  0.51801002  0.00426000
   0.72974998  0.57587999  0.02296000
   0.23006000  0.16347000  0.05126000
   0.57196999  0.22160000  0.07004000
   0.42738000  0.84114999  0.10867000
   0.76928997  0.89903003  0.12737000
   0.26940000  0.48635000  0.15558000
   0.92730999  0.54435003  0.17433000
   0.07318936  0.15672086  0.21195683
   0.73232566  0.21219722  0.22798779
   0.23153723  0.80456273  0.26222192
   0.56893719  0.86604255  0.28590115
   0.43080885  0.49140777  0.31362683
   0.76774919  0.53547629  0.32819536
   0.27182413  0.13893975  0.35483745
   0.92026108  0.19097877  0.36886694
Direct configuration=    19
   0.39873999  0.50483000  0.00000000
   0.89907002  0.23477000  0.07430000
   0.10028000  0.82758999  0.10429000
   0.60031003  0.55791998  0.17871000
   0.40094869  0.14651322  0.20593152
   0.90277203  0.86731996  0.28726811
   0.10772890  0.47372204  0.31888161
   0.59479304  0.19704843  0.38282276
   0.07184000  0.51801002  0.00426000
   0.72974998  0.57587999  0.02296000
   0.23006000  0.16347000  0.05126000
   0.57196999  0.22160000  0.07004000
   0.42738000  0.84114999  0.10867000
   0.76928997  0.89903003  0.12737000
   0.26940000  0.48635000  0.15558000
   0.92730999  0.54435003  0.17433000
   0.07317785  0.15645988  0.21187707
   0.73220962  0.21191106  0.22783163
   0.23164769  0.80445382  0.26222564
   0.56889742  0.86600371  0.28608170
   0.43079905  0.49158155  0.31363094
   0.76765813  0.53507296  0.32807585
   0.27179061  0.13895104  0.35464399
   0.92004629  0.19073639  0.36846739
Direct configuration=    20
   0.39873999  0.50483000  0.00000000
   0.89907002  0.23477000  0.07430000
   0.10028000  0.82758999  0.10429000
   0.60031003  0.55791998  0.17871000
   0.40087720  0.14641603  0.20585144
   0.90283333  0.86684111  0.28713446
   0.10779476  0.47355706  0.31880203
   0.59462478  0.19682757  0.38257557
   0.07184000  0.51801002  0.00426000
   0.72974998  0.57587999  0.02296000
   0.23006000  0.16347000  0.05126000
   0.57196999  0.22160000  0.07004000
   0.42738000  0.84114999  0.10867000
   0.76928997  0.89903003  0.12737000
   0.26940000  0.48635000  0.15558000
   0.92730999  0.54435003  0.17433000
   0.07316022  0.15613302  0.21174375
   0.73197596  0.21163267  0.22759043
   0.23180947  0.80436571  0.26221244
   0.56887735  0.86594948  0.28627884
   0.43079770  0.49177651  0.31370266
   0.76750100  0.53462221  0.32798295
   0.27172189  0.13885774  0.35447647
   0.91985558  0.19041486  0.36804131
Direct configuration=    21
   0.39873999  0.50483000  0.00000000
   0.89907002  0.23477000  0.07430000
   0.10028000  0.82758999  0.10429000
   0.60031003  0.55791998  0.17871000
   0.40082958  0.14639491  0.20581506
   0.90284342  0.86653736  0.28705228
   0.10777302  0.47342715  0.31874652
   0.59454678  0.19670788  0.38246975
   0.07184000  0.51801002  0.00426000
   0.72974998  0.57587999  0.02296000
   0.23006000  0.16347000  0.05126000
   0.57196999  0.22160000  0.07004000
   0.42738000  0.84114999  0.10867000
   0.76928997  0.89903003  0.12737000
   0.26940000  0.48635000  0.15558000
   0.92730999  0.54435003  0.17433000
   0.07312119  0.15597976  0.21165831
   0.73186957  0.21159087  0.22748918
   0.23186810  0.80431616  0.26219106
   0.56887355  0.86588881  0.28635059
   0.43077059  0.49187107  0.31375298
   0.76741677  0.53444279  0.32795923
   0.27166983  0.13876655  0.35443755
   0.91981192  0.19023749  0.36786945
Direct configuration=    22
   0.39873999  0.50483000  0.00000000
   0.89907002  0.23477000  0.07430000
   0.10028000  0.82758999  0.10429000
   0.60031003  0.55791998  0.17871000
   0.40079355  0.14641427  0.20581835
   0.90283143  0.86637438  0.28701836
   0.10771575  0.47330410  0.31871391
   0.59454858  0.19665737  0.38246732
   0.07184000  0.51801002  0.00426000
   0.72974998  0.57587999  0.02296000
   0.23006000  0.16347000  0.05126000
   0.57196999  0.22160000  0.07004000
   0.42738000  0.84114999  0.10867000
   0.76928997  0.89903003  0.12737000
   0.26940000  0.48635000  0.15558000
   0.92730999  0.54435003  0.17433000
   0.07305838  0.15596019  0.21163074
   0.73189013  0.21173303  0.22750260
   0.23185324  0.80427401  0.26216535
   0.56886247  0.86582163  0.28632227
   0.43071056  0.49189386  0.31376985
   0.76738979  0.53446466  0.32797778
   0.27162176  0.13869279  0.35448123
   0.91985877  0.19013497  0.36786713
Direct configuration=    23
   0.39873999  0.50483000  0.00000000
   0.89907002  0.23477000  0.07430000
   0.10028000  0.82758999  0.10429000
   0.60031003  0.55791998  0.17871000
   0.40068411  0.14639701  0.20578103
   0.90284654  0.86579556  0.28687865
   0.10763259  0.47296130  0.31860650
   0.59446187  0.19642835  0.38233638
   0.07184000  0.51801002  0.00426000
   0.72974998  0.57587999  0.02296000
   0.23006000  0.16347000  0.05126000
   0.57196999  0.22160000  0.07004000
   0.42738000  0.84114999  0.10867000
   0.76928997  0.89903003  0.12737000
   0.26940000  0.48635000  0.15558000
   0.92730999  0.54435003  0.17433000
   0.07293204  0.15574035  0.21150585
   0.73179841  0.21185836  0.22740285
   0.23190846  0.80414465  0.26211241
   0.56883026  0.86567200  0.28637206
   0.43058222  0.49203529  0.31384374
   0.76725178  0.53425188  0.32797144
   0.27148407  0.13848920  0.35447356
   0.91984525  0.18974972  0.36763942
Direct configuration=    24
   0.39873999  0.50483000  0.00000000
   0.89907002  0.23477000  0.07430000
   0.10028000  0.82758999  0.10429000
   0.60031003  0.55791998  0.17871000
   0.40069996  0.14640484  0.20580575
   0.90283790  0.86590480  0.28691412
   0.10763518  0.47299215  0.31862557
   0.59449875  0.19647357  0.38238643
   0.07184000  0.51801002  0.00426000
   0.72974998  0.57587999  0.02296000
   0.23006000  0.16347000  0.05126000
   0.57196999  0.22160000  0.07004000
   0.42738000  0.84114999  0.10867000
   0.76928997  0.89903003  0.12737000
   0.26940000  0.48635000  0.15558000
   0.92730999  0.54435003  0.17433000
   0.07294053  0.15579724  0.21153916
   0.73184892  0.21190699  0.22745642
   0.23187182  0.80415469  0.26211792
   0.56883088  0.86568630  0.28633327
   0.43057638  0.49199803  0.31382164
   0.76727981  0.53433254  0.32798913
   0.27150038  0.13851433  0.35449589
   0.91986688  0.18979327  0.36771420
Direct configuration=    25
   0.39873999  0.50483000  0.00000000
   0.89907002  0.23477000  0.07430000
   0.10028000  0.82758999  0.10429000
   0.60031003  0.55791998  0.17871000
   0.40067710  0.14639621  0.20581606
   0.90283887  0.86579959  0.28689925
   0.10762102  0.47289650  0.31860531
   0.59449727  0.19643310  0.38238069
   0.07184000  0.51801002  0.00426000
   0.72974998  0.57587999  0.02296000
   0.23006000  0.16347000  0.05126000
   0.57196999  0.22160000  0.07004000
   0.42738000  0.84114999  0.10867000
   0.76928997  0.89903003  0.12737000
   0.26940000  0.48635000  0.15558000
   0.92730999  0.54435003  0.17433000
   0.07290311  0.15575448  0.21152304
   0.73185503  0.21196396  0.22746230
   0.23186069  0.80411157  0.26210554
   0.56882193  0.86565393  0.28632465
   0.43052584  0.49201630  0.31382523
   0.76724977  0.53429414  0.32800052
   0.27147077  0.13846595  0.35450020
   0.91985967  0.18967446  0.36767953
Direct configuration=    26
   0.39873999  0.50483000  0.00000000
   0.89907002  0.23477000  0.07430000
   0.10028000  0.82758999  0.10429000
   0.60031003  0.55791998  0.17871000
   0.40062969  0.14637557  0.20585200
   0.90283499  0.86559340  0.28687762
   0.10759212  0.47268101  0.31856186
   0.59450427  0.19635345  0.38238852
   0.07184000  0.51801002  0.00426000
   0.72974998  0.57587999  0.02296000
   0.23006000  0.16347000  0.05126000
   0.57196999  0.22160000  0.07004000
   0.42738000  0.84114999  0.10867000
   0.76928997  0.89903003  0.12737000
   0.26940000  0.48635000  0.15558000
   0.92730999  0.54435003  0.17433000
   0.07283942  0.15567898  0.21151260
   0.73188998  0.21207774  0.22750146
   0.23181086  0.80401170  0.26208060
   0.56880224  0.86559416  0.28628419
   0.43040900  0.49202853  0.31381786
   0.76718875  0.53424027  0.32803546
   0.27141358  0.13836511  0.35451555
   0.91984338  0.18941409  0.36764049
Direct configuration=    27
   0.39873999  0.50483000  0.00000000
   0.89907002  0.23477000  0.07430000
   0.10028000  0.82758999  0.10429000
   0.60031003  0.55791998  0.17871000
   0.40058045  0.14635558  0.20587153
   0.90283883  0.86535654  0.28684168
   0.10756348  0.47247418  0.31851649
   0.59448183  0.19626754  0.38236940
   0.07184000  0.51801002  0.00426000
   0.72974998  0.57587999  0.02296000
   0.23006000  0.16347000  0.05126000
   0.57196999  0.22160000  0.07004000
   0.42738000  0.84114999  0.10867000
   0.76928997  0.89903003  0.12737000
   0.26940000  0.48635000  0.15558000
   0.92730999  0.54435003  0.17433000
   0.07278433  0.15557325  0.21148298
   0.73189200  0.21214570  0.22750393
   0.23178674  0.80391546  0.26205664
   0.56878134  0.86553093  0.28626788
   0.43031418  0.49205451  0.31382280
   0.76711779  0.53414583  0.32805957
   0.27135355  0.13825488  0.35451702
   0.91981592  0.18916036  0.36756747
