alloy-surf                              
           1
     7.123600    0.000000    0.000000
    -2.524842    9.057370    0.000000
     0.000000    0.000000   16.185900
   In   Pd
   8  16
Direct configuration=     1
   0.18663999  0.86427999  0.05988000
   0.28696001  0.38490000  0.08790000
   0.62568998  0.19158000  0.09918000
   0.72549999  0.71184999  0.12715000
   0.88265997  0.00569000  0.25492001
   0.98298001  0.52631003  0.28294000
   0.32170999  0.33298001  0.29422000
   0.42151001  0.85325998  0.32218000
   0.94466001  0.29256999  0.00000000
   0.64916003  0.46002001  0.01303000
   0.40053001  0.66846001  0.02812000
   0.90309000  0.01169000  0.08416000
   0.00918000  0.56448001  0.10290000
   0.51166999  0.90785003  0.15886000
   0.26289999  0.11626000  0.17392001
   0.96789002  0.28365001  0.18714000
   0.64068002  0.43397999  0.19504000
   0.34516999  0.60141999  0.20807000
   0.09655000  0.80987000  0.22316000
   0.59911001  0.15310000  0.27919999
   0.70520002  0.70587999  0.29793999
   0.20769000  0.04925000  0.35389999
   0.95892000  0.25766999  0.36895001
   0.66390997  0.42506000  0.38218001
Direct configuration=     2
   0.18663999  0.86427999  0.05988000
   0.28696001  0.38490000  0.08790000
   0.62568998  0.19158000  0.09918000
   0.72549999  0.71184999  0.12715000
   0.88250158  0.00571763  0.25543333
   0.98258709  0.52644629  0.28331646
   0.32168653  0.33313806  0.29474849
   0.42151047  0.85324121  0.32229488
   0.94466001  0.29256999  0.00000000
   0.64916003  0.46002001  0.01303000
   0.40053001  0.66846001  0.02812000
   0.90309000  0.01169000  0.08416000
   0.00918000  0.56448001  0.10290000
   0.51166999  0.90785003  0.15886000
   0.26289999  0.11626000  0.17392001
   0.96789002  0.28365001  0.18714000
   0.64044642  0.43406657  0.19503144
   0.34501174  0.60161290  0.20830131
   0.09647660  0.80957515  0.22344602
   0.59918941  0.15335794  0.27933524
   0.70510373  0.70580212  0.29776055
   0.20759599  0.04939926  0.35335742
   0.95895403  0.25772854  0.36822343
   0.66422829  0.42469527  0.38136914
Direct configuration=     3
   0.18663999  0.86427999  0.05988000
   0.28696001  0.38490000  0.08790000
   0.62568998  0.19158000  0.09918000
   0.72549999  0.71184999  0.12715000
   0.88075530  0.00576987  0.26025229
   0.97946879  0.52812798  0.28671286
   0.32138577  0.33498584  0.29973044
   0.42166450  0.85313320  0.32343656
   0.94466001  0.29256999  0.00000000
   0.64916003  0.46002001  0.01303000
   0.40053001  0.66846001  0.02812000
   0.90309000  0.01169000  0.08416000
   0.00918000  0.56448001  0.10290000
   0.51166999  0.90785003  0.15886000
   0.26289999  0.11626000  0.17392001
   0.96789002  0.28365001  0.18714000
   0.63786420  0.43485208  0.19486796
   0.34328958  0.60331514  0.21066978
   0.09560502  0.80671696  0.22622793
   0.59975078  0.15579882  0.28053625
   0.70395588  0.70519888  0.29601987
   0.20682669  0.05074840  0.34794508
   0.95922071  0.25825424  0.36105905
   0.66715949  0.42072765  0.37340373
Direct configuration=     4
   0.18663999  0.86427999  0.05988000
   0.28696001  0.38490000  0.08790000
   0.62568998  0.19158000  0.09918000
   0.72549999  0.71184999  0.12715000
   0.88029843  0.00541118  0.25951631
   0.98089621  0.52839107  0.28601106
   0.32145892  0.33520711  0.29896685
   0.42174093  0.85319728  0.32333348
   0.94466001  0.29256999  0.00000000
   0.64916003  0.46002001  0.01303000
   0.40053001  0.66846001  0.02812000
   0.90309000  0.01169000  0.08416000
   0.00918000  0.56448001  0.10290000
   0.51166999  0.90785003  0.15886000
   0.26289999  0.11626000  0.17392001
   0.96789002  0.28365001  0.18714000
   0.63783791  0.43469297  0.19475573
   0.34321045  0.60300372  0.21047362
   0.09571690  0.80715573  0.22589033
   0.59929713  0.15525349  0.28022496
   0.70397956  0.70538291  0.29621229
   0.20725913  0.05043068  0.34855906
   0.95910035  0.25818022  0.36195141
   0.66653375  0.42087974  0.37447597
Direct configuration=     5
   0.18663999  0.86427999  0.05988000
   0.28696001  0.38490000  0.08790000
   0.62568998  0.19158000  0.09918000
   0.72549999  0.71184999  0.12715000
   0.87687502  0.00399265  0.26101119
   0.98343948  0.53085715  0.28634926
   0.32139428  0.33793607  0.30043130
   0.42220671  0.85330837  0.32403233
   0.94466001  0.29256999  0.00000000
   0.64916003  0.46002001  0.01303000
   0.40053001  0.66846001  0.02812000
   0.90309000  0.01169000  0.08416000
   0.00918000  0.56448001  0.10290000
   0.51166999  0.90785003  0.15886000
   0.26289999  0.11626000  0.17392001
   0.96789002  0.28365001  0.18714000
   0.63532113  0.43475882  0.19416466
   0.34135338  0.60333326  0.21183908
   0.09537665  0.80642198  0.22704460
   0.59786331  0.15527966  0.28000463
   0.70290376  0.70549716  0.29537033
   0.20829186  0.05045122  0.34590695
   0.95879883  0.25837906  0.35884506
   0.66705934  0.41778134  0.37127660
Direct configuration=     6
   0.18663999  0.86427999  0.05988000
   0.28696001  0.38490000  0.08790000
   0.62568998  0.19158000  0.09918000
   0.72549999  0.71184999  0.12715000
   0.87569966  0.00333479  0.26081716
   0.98476499  0.53155762  0.28596376
   0.32132559  0.33879201  0.30022768
   0.42240744  0.85335226  0.32416961
   0.94466001  0.29256999  0.00000000
   0.64916003  0.46002001  0.01303000
   0.40053001  0.66846001  0.02812000
   0.90309000  0.01169000  0.08416000
   0.00918000  0.56448001  0.10290000
   0.51166999  0.90785003  0.15886000
   0.26289999  0.11626000  0.17392001
   0.96789002  0.28365001  0.18714000
   0.63468317  0.43468054  0.19392364
   0.34096345  0.60325592  0.21199339
   0.09543111  0.80677930  0.22704653
   0.59704327  0.15481634  0.27964646
   0.70256859  0.70555003  0.29530948
   0.20883359  0.05030664  0.34562023
   0.95857387  0.25835588  0.35869238
   0.66705776  0.41713870  0.37118139
Direct configuration=     7
   0.18663999  0.86427999  0.05988000
   0.28696001  0.38490000  0.08790000
   0.62568998  0.19158000  0.09918000
   0.72549999  0.71184999  0.12715000
   0.87517481  0.00305912  0.26077983
   0.98499149  0.53180078  0.28587663
   0.32119174  0.33917761  0.30019807
   0.42252177  0.85334374  0.32426212
   0.94466001  0.29256999  0.00000000
   0.64916003  0.46002001  0.01303000
   0.40053001  0.66846001  0.02812000
   0.90309000  0.01169000  0.08416000
   0.00918000  0.56448001  0.10290000
   0.51166999  0.90785003  0.15886000
   0.26289999  0.11626000  0.17392001
   0.96789002  0.28365001  0.18714000
   0.63438636  0.43467551  0.19380924
   0.34090261  0.60330269  0.21204975
   0.09549719  0.80706072  0.22704868
   0.59664158  0.15460140  0.27944042
   0.70235835  0.70547134  0.29527124
   0.20899206  0.05033361  0.34537997
   0.95843875  0.25831957  0.35851073
   0.66731446  0.41682095  0.37097709
Direct configuration=     8
   0.18663999  0.86427999  0.05988000
   0.28696001  0.38490000  0.08790000
   0.62568998  0.19158000  0.09918000
   0.72549999  0.71184999  0.12715000
   0.87284248  0.00192281  0.26065216
   0.98522658  0.53275498  0.28560504
   0.32052394  0.34085696  0.30016834
   0.42303810  0.85318266  0.32474410
   0.94466001  0.29256999  0.00000000
   0.64916003  0.46002001  0.01303000
   0.40053001  0.66846001  0.02812000
   0.90309000  0.01169000  0.08416000
   0.00918000  0.56448001  0.10290000
   0.51166999  0.90785003  0.15886000
   0.26289999  0.11626000  0.17392001
   0.96789002  0.28365001  0.18714000
   0.63306732  0.43469891  0.19326301
   0.34086409  0.60375029  0.21222480
   0.09591982  0.80860177  0.22705943
   0.59479852  0.15368932  0.27842305
   0.70138775  0.70485719  0.29510889
   0.20949716  0.05068939  0.34407407
   0.95771381  0.25805367  0.35751898
   0.66888850  0.41526128  0.36974753
Direct configuration=     9
   0.18663999  0.86427999  0.05988000
   0.28696001  0.38490000  0.08790000
   0.62568998  0.19158000  0.09918000
   0.72549999  0.71184999  0.12715000
   0.87161076  0.00137150  0.26057647
   0.98534445  0.53334162  0.28538804
   0.32023064  0.34177303  0.30013607
   0.42326410  0.85304173  0.32502151
   0.94466001  0.29256999  0.00000000
   0.64916003  0.46002001  0.01303000
   0.40053001  0.66846001  0.02812000
   0.90309000  0.01169000  0.08416000
   0.00918000  0.56448001  0.10290000
   0.51166999  0.90785003  0.15886000
   0.26289999  0.11626000  0.17392001
   0.96789002  0.28365001  0.18714000
   0.63235780  0.43469844  0.19295279
   0.34085412  0.60405848  0.21226139
   0.09618052  0.80948719  0.22702710
   0.59383939  0.15319405  0.27784171
   0.70085699  0.70442320  0.29505443
   0.20968320  0.05097422  0.34335279
   0.95725371  0.25781195  0.35698747
   0.66966810  0.41434068  0.36907895
Direct configuration=    10
   0.18663999  0.86427999  0.05988000
   0.28696001  0.38490000  0.08790000
   0.62568998  0.19158000  0.09918000
   0.72549999  0.71184999  0.12715000
   0.87150256  0.00141009  0.26052738
   0.98523245  0.53358619  0.28520930
   0.32030608  0.34189670  0.30010917
   0.42317199  0.85291397  0.32509334
   0.94466001  0.29256999  0.00000000
   0.64916003  0.46002001  0.01303000
   0.40053001  0.66846001  0.02812000
   0.90309000  0.01169000  0.08416000
   0.00918000  0.56448001  0.10290000
   0.51166999  0.90785003  0.15886000
   0.26289999  0.11626000  0.17392001
   0.96789002  0.28365001  0.18714000
   0.63230872  0.43466661  0.19289263
   0.34088499  0.60424068  0.21212263
   0.09626060  0.80969216  0.22693530
   0.59384575  0.15309450  0.27771329
   0.70078892  0.70416426  0.29511248
   0.20952432  0.05121176  0.34327783
   0.95707288  0.25756527  0.35694970
   0.66960854  0.41406692  0.36899017
Direct configuration=    11
   0.18663999  0.86427999  0.05988000
   0.28696001  0.38490000  0.08790000
   0.62568998  0.19158000  0.09918000
   0.72549999  0.71184999  0.12715000
   0.86965385  0.00089003  0.26021880
   0.98485831  0.53525684  0.28419971
   0.32024305  0.34349027  0.29994291
   0.42294242  0.85220064  0.32570044
   0.94466001  0.29256999  0.00000000
   0.64916003  0.46002001  0.01303000
   0.40053001  0.66846001  0.02812000
   0.90309000  0.01169000  0.08416000
   0.00918000  0.56448001  0.10290000
   0.51166999  0.90785003  0.15886000
   0.26289999  0.11626000  0.17392001
   0.96789002  0.28365001  0.18714000
   0.63130598  0.43451573  0.19228808
   0.34095674  0.60538544  0.21154529
   0.09691119  0.81153950  0.22649791
   0.59284094  0.15209858  0.27654158
   0.69990927  0.70254085  0.29529891
   0.20903579  0.05255731  0.34219251
   0.95584695  0.25624648  0.35620883
   0.67026271  0.41189279  0.36787413
Direct configuration=    12
   0.18663999  0.86427999  0.05988000
   0.28696001  0.38490000  0.08790000
   0.62568998  0.19158000  0.09918000
   0.72549999  0.71184999  0.12715000
   0.86957485  0.00078973  0.26019547
   0.98480576  0.53529030  0.28412918
   0.32019700  0.34361652  0.29992464
   0.42284644  0.85217137  0.32572350
   0.94466001  0.29256999  0.00000000
   0.64916003  0.46002001  0.01303000
   0.40053001  0.66846001  0.02812000
   0.90309000  0.01169000  0.08416000
   0.00918000  0.56448001  0.10290000
   0.51166999  0.90785003  0.15886000
   0.26289999  0.11626000  0.17392001
   0.96789002  0.28365001  0.18714000
   0.63124328  0.43450025  0.19224111
   0.34095052  0.60544466  0.21150796
   0.09691945  0.81165313  0.22646921
   0.59276707  0.15204144  0.27648919
   0.69986109  0.70245358  0.29530960
   0.20902054  0.05261713  0.34216387
   0.95583253  0.25620567  0.35616541
   0.67026177  0.41175686  0.36780684
Direct configuration=    13
   0.18663999  0.86427999  0.05988000
   0.28696001  0.38490000  0.08790000
   0.62568998  0.19158000  0.09918000
   0.72549999  0.71184999  0.12715000
   0.86941053  0.00047907  0.26012824
   0.98463650  0.53522800  0.28393506
   0.32002430  0.34395576  0.29986920
   0.42244822  0.85212016  0.32574911
   0.94466001  0.29256999  0.00000000
   0.64916003  0.46002001  0.01303000
   0.40053001  0.66846001  0.02812000
   0.90309000  0.01169000  0.08416000
   0.00918000  0.56448001  0.10290000
   0.51166999  0.90785003  0.15886000
   0.26289999  0.11626000  0.17392001
   0.96789002  0.28365001  0.18714000
   0.63109567  0.43445057  0.19211370
   0.34092418  0.60556244  0.21141243
   0.09685950  0.81187975  0.22639596
   0.59260574  0.15190874  0.27641761
   0.69974764  0.70226403  0.29533133
   0.20901199  0.05272202  0.34217697
   0.95590217  0.25617374  0.35607921
   0.67015432  0.41144942  0.36765706
Direct configuration=    14
   0.18663999  0.86427999  0.05988000
   0.28696001  0.38490000  0.08790000
   0.62568998  0.19158000  0.09918000
   0.72549999  0.71184999  0.12715000
   0.86919215  0.00025922  0.26007050
   0.98449767  0.53529438  0.28374596
   0.31991198  0.34426865  0.29982351
   0.42217458  0.85204239  0.32580091
   0.94466001  0.29256999  0.00000000
   0.64916003  0.46002001  0.01303000
   0.40053001  0.66846001  0.02812000
   0.90309000  0.01169000  0.08416000
   0.00918000  0.56448001  0.10290000
   0.51166999  0.90785003  0.15886000
   0.26289999  0.11626000  0.17392001
   0.96789002  0.28365001  0.18714000
   0.63093127  0.43440548  0.19199262
   0.34091246  0.60571733  0.21131565
   0.09685296  0.81213130  0.22632180
   0.59246607  0.15176298  0.27630409
   0.69960599  0.70203507  0.29535962
   0.20897572  0.05288236  0.34212004
   0.95585894  0.25606420  0.35597564
   0.67012110  0.41111750  0.36748802
Direct configuration=    15
   0.18663999  0.86427999  0.05988000
   0.28696001  0.38490000  0.08790000
   0.62568998  0.19158000  0.09918000
   0.72549999  0.71184999  0.12715000
   0.86900344  0.00008542  0.26002683
   0.98436457  0.53532830  0.28358803
   0.31980933  0.34454500  0.29977286
   0.42192048  0.85196683  0.32583810
   0.94466001  0.29256999  0.00000000
   0.64916003  0.46002001  0.01303000
   0.40053001  0.66846001  0.02812000
   0.90309000  0.01169000  0.08416000
   0.00918000  0.56448001  0.10290000
   0.51166999  0.90785003  0.15886000
   0.26289999  0.11626000  0.17392001
   0.96789002  0.28365001  0.18714000
   0.63076864  0.43436778  0.19189004
   0.34090028  0.60587761  0.21122044
   0.09682632  0.81231210  0.22626438
   0.59238258  0.15162976  0.27621688
   0.69945367  0.70182975  0.29538738
   0.20893275  0.05303813  0.34208360
   0.95581402  0.25595850  0.35588934
   0.67006620  0.41083508  0.36733735
