 vasp.5.4.4.18Apr17-6-g9f103f2a35 (build May 11 2017 09:47:33) complex          
  
 executed on            tekla2IFC date 2020.09.14  09:47:01
 running on   12 total cores
 distrk:  each k-point on   12 cores,    1 groups
 distr:  one band on NCORES_PER_BAND=   1 cores,   12 groups


--------------------------------------------------------------------------------------------------------


 INCAR:
 POTCAR:    PAW_PBE In 08Apr2002                  
 POTCAR:    PAW_PBE Pd 04Jan2005                  

 ----------------------------------------------------------------------------- 
|                                                                             |
|           W    W    AA    RRRRR   N    N  II  N    N   GGGG   !!!           |
|           W    W   A  A   R    R  NN   N  II  NN   N  G    G  !!!           |
|           W    W  A    A  R    R  N N  N  II  N N  N  G       !!!           |
|           W WW W  AAAAAA  RRRRR   N  N N  II  N  N N  G  GGG   !            |
|           WW  WW  A    A  R   R   N   NN  II  N   NN  G    G                |
|           W    W  A    A  R    R  N    N  II  N    N   GGGG   !!!           |
|                                                                             |
|      For optimal performance we recommend to set                            |
|        NCORE= 4 - approx SQRT( number of cores)                             |
|      NCORE specifies how many cores store one orbital (NPAR=cpu/NCORE).     |
|      This setting can  greatly improve the performance of VASP for DFT.     |
|      The default,   NCORE=1            might be grossly inefficient         |
|      on modern multi-core architectures or massively parallel machines.     |
|      Do your own testing !!!!                                               |
|      Unfortunately you need to use the default for GW and RPA calculations. |
|      (for HF NCORE is supported but not extensively tested yet)             |
|                                                                             |
 ----------------------------------------------------------------------------- 

 POTCAR:    PAW_PBE In 08Apr2002                  
  local pseudopotential read in
  partial core-charges read in
  partial kinetic energy density read in
  atomic valenz-charges read in
  non local Contribution for L=           0  read in
    real space projection operators read in
  non local Contribution for L=           0  read in
    real space projection operators read in
  non local Contribution for L=           1  read in
    real space projection operators read in
  non local Contribution for L=           1  read in
    real space projection operators read in
  non local Contribution for L=           2  read in
    real space projection operators read in
    PAW grid and wavefunctions read in
 
   number of l-projection  operators is LMAX  =           5
   number of lm-projection operators is LMMAX =          13
 
 POTCAR:    PAW_PBE Pd 04Jan2005                  
  local pseudopotential read in
  partial core-charges read in
  partial kinetic energy density read in
  atomic valenz-charges read in
  non local Contribution for L=           2  read in
    real space projection operators read in
  non local Contribution for L=           2  read in
    real space projection operators read in
  non local Contribution for L=           0  read in
    real space projection operators read in
  non local Contribution for L=           0  read in
    real space projection operators read in
  non local Contribution for L=           1  read in
    real space projection operators read in
  non local Contribution for L=           1  read in
    real space projection operators read in
    PAW grid and wavefunctions read in
 
   number of l-projection  operators is LMAX  =           6
   number of lm-projection operators is LMMAX =          18
 
 Optimization of the real space projectors (new method)

 maximal supplied QI-value         = 12.09
 optimisation between [QCUT,QGAM] = [ 10.76, 21.65] = [ 32.44,131.24] Ry 
 Optimized for a Real-space Cutoff    1.65 Angstroem

   l    n(q)    QCUT    max X(q) W(low)/X(q) W(high)/X(q)  e(spline) 
   0     11    10.764   106.980    0.17E-03    0.26E-03    0.98E-06
   0     11    10.764    81.086    0.18E-03    0.28E-03    0.11E-05
   1     10    10.764    53.097    0.42E-03    0.22E-03    0.10E-05
   1     10    10.764    32.621    0.39E-03    0.21E-03    0.95E-06
   2     10    10.764     8.820    0.14E-03    0.25E-03    0.18E-06
 Optimization of the real space projectors (new method)

 maximal supplied QI-value         = 14.36
 optimisation between [QCUT,QGAM] = [ 10.77, 21.69] = [ 32.49,131.70] Ry 
 Optimized for a Real-space Cutoff    1.46 Angstroem

   l    n(q)    QCUT    max X(q) W(low)/X(q) W(high)/X(q)  e(spline) 
   2      9    10.771    59.108    0.11E-03    0.29E-03    0.19E-06
   2      9    10.771    58.101    0.11E-03    0.29E-03    0.19E-06
   0     10    10.771   102.235    0.41E-04    0.80E-04    0.63E-07
   0     10    10.771    58.388    0.39E-04    0.76E-04    0.60E-07
   1      9    10.771    22.191    0.50E-03    0.23E-03    0.35E-06
   1      9    10.771    15.590    0.42E-03    0.19E-03    0.29E-06
  PAW_PBE In 08Apr2002                  :
 energy of atom  1       EATOM=  -53.7908
 kinetic energy error for atom=    0.0000 (will be added to EATOM!!)
  PAW_PBE Pd 04Jan2005                  :
 energy of atom  2       EATOM= -809.7530
 kinetic energy error for atom=    0.0051 (will be added to EATOM!!)
 
 
 POSCAR: InPd2                                   
  positions in cartesian coordinates
  No initial velocities read in
 exchange correlation table for  LEXCH =        8
   RHO(1)=    0.500       N(1)  =     2000
   RHO(2)=  100.500       N(2)  =     4000
 


--------------------------------------------------------------------------------------------------------


 ion  position               nearest neighbor table
   1  0.375  0.600  0.042-  19 2.74  11 2.74  10 2.75  14 2.75   9 2.85  20 2.94  12 2.94   3 3.81

   2  0.125  0.100  0.097-  18 2.74  10 2.74  11 2.75  21 2.77  13 2.77  12 2.85  17 2.94   9 2.94
                            15 2.99   7 3.39   3 3.39   4 3.81
   3  0.375  0.899  0.234-  23 2.74  15 2.74  14 2.75  20 2.77  12 2.77  13 2.85  24 2.94  16 2.94
                            10 2.99   6 3.39   2 3.39   1 3.81
   4  0.125  0.399  0.289-  22 2.74  14 2.74  15 2.75  11 2.75  16 2.85  21 2.94  13 2.94   2 3.81

   5  0.875  0.600  0.042-  11 2.74  19 2.74  18 2.75  22 2.75  17 2.85  12 2.94  20 2.94   7 3.81

   6  0.625  0.100  0.097-  10 2.74  18 2.74  19 2.75  13 2.77  21 2.77  20 2.85   9 2.94  17 2.94
                            23 2.99   3 3.39   7 3.39   8 3.81
   7  0.875  0.899  0.234-  15 2.74  23 2.74  22 2.75  12 2.77  20 2.77  21 2.85  16 2.94  24 2.94
                            18 2.99   2 3.39   6 3.39   5 3.81
   8  0.625  0.399  0.289-  14 2.74  22 2.74  23 2.75  19 2.75  24 2.85  13 2.94  21 2.94   6 3.81

   9  0.375  0.269  0.000-   1 2.85  13 2.88  10 2.92   6 2.94   2 2.94  19 2.96  11 2.96
  10  0.375  0.927  0.034-   6 2.74   2 2.74   1 2.75   9 2.92  20 2.95  12 2.95   3 2.99
  11  0.125  0.427  0.105-   5 2.74   1 2.74   2 2.75   4 2.75  12 2.92  17 2.96   9 2.96  21 2.98
                            13 2.98  22 3.04  14 3.04
  12  0.125  0.769  0.140-   7 2.77   3 2.77   2 2.85  16 2.88  11 2.92   5 2.94   1 2.94  18 2.95
                            10 2.95  22 2.98  14 2.98
  13  0.375  0.230  0.192-   6 2.77   2 2.77   3 2.85   9 2.88  14 2.92   8 2.94   4 2.94  23 2.95
                            15 2.95  19 2.98  11 2.98
  14  0.375  0.572  0.226-   8 2.74   4 2.74   3 2.75   1 2.75  13 2.92  24 2.95  16 2.95  20 2.98
                            12 2.98  19 3.04  11 3.04
  15  0.125  0.072  0.297-   7 2.74   3 2.74   4 2.75  16 2.92  21 2.95  13 2.95   2 2.99
  16  0.125  0.730  0.331-   4 2.85  12 2.88  15 2.92   7 2.94   3 2.94  22 2.95  14 2.95
  17  0.875  0.269  0.000-   5 2.85  21 2.88  18 2.92   2 2.94   6 2.94  11 2.96  19 2.96
  18  0.875  0.927  0.034-   2 2.74   6 2.74   5 2.75  17 2.92  12 2.95  20 2.95   7 2.99
  19  0.625  0.427  0.105-   1 2.74   5 2.74   6 2.75   8 2.75  20 2.92   9 2.96  17 2.96  13 2.98
                            21 2.98  14 3.04  22 3.04
  20  0.625  0.769  0.140-   3 2.77   7 2.77   6 2.85  24 2.88  19 2.92   1 2.94   5 2.94  10 2.95
                            18 2.95  14 2.98  22 2.98
  21  0.875  0.230  0.192-   2 2.77   6 2.77   7 2.85  17 2.88  22 2.92   4 2.94   8 2.94  15 2.95
                            23 2.95  11 2.98  19 2.98
  22  0.875  0.572  0.226-   4 2.74   8 2.74   7 2.75   5 2.75  21 2.92  16 2.95  24 2.95  12 2.98
                            20 2.98  11 3.04  19 3.04
  23  0.625  0.072  0.297-   3 2.74   7 2.74   8 2.75  24 2.92  13 2.95  21 2.95   6 2.99
  24  0.625  0.730  0.331-   8 2.85  20 2.88  23 2.92   3 2.94   7 2.94  14 2.95  22 2.95
 
  LATTYP: Found a simple orthorhombic cell.
 ALAT       =     8.3929004669
 B/A-ratio  =     1.0101394292
 C/A-ratio  =     1.7811839746
  
  Lattice vectors:
  
 A1 = (   0.0000000000,  -8.3929004669,   0.0000000000)
 A2 = (  -8.4779996872,   0.0000000000,   0.0000000000)
 A3 = (   0.0000000000,   0.0000000000, -14.9492998123)


Analysis of symmetry for initial positions (statically):
=====================================================================
 Subroutine PRICEL returns following result:
 
  LATTYP: Found a simple orthorhombic cell.
 ALAT       =     4.2389998436
 B/A-ratio  =     1.9799246937
 C/A-ratio  =     3.5266101354
  
  Lattice vectors:
  
 A1 = (   4.2389998436,   0.0000000000,   0.0000000000)
 A2 = (   0.0000000000,   8.3929004669,   0.0000000000)
 A3 = (   0.0000000000,   0.0000000000,  14.9492998123)
 
   2 primitive cells build up your supercell.
 

 Routine SETGRP: Setting up the symmetry group for a 
 simple orthorhombic supercell.


 Subroutine GETGRP returns: Found  2 space group operations
 (whereof  1 operations were pure point group operations)
 out of a pool of  8 trial point group operations.


The static configuration has the point symmetry C_1 .
 The point group associated with its full space group is C_1h.


Analysis of symmetry for dynamics (positions and initial velocities):
=====================================================================
 Subroutine PRICEL returns following result:
 
  LATTYP: Found a simple orthorhombic cell.
 ALAT       =     4.2389998436
 B/A-ratio  =     1.9799246937
 C/A-ratio  =     3.5266101354
  
  Lattice vectors:
  
 A1 = (   4.2389998436,   0.0000000000,   0.0000000000)
 A2 = (   0.0000000000,   8.3929004669,   0.0000000000)
 A3 = (   0.0000000000,   0.0000000000,  14.9492998123)
 
   2 primitive cells build up your supercell.
 

 Routine SETGRP: Setting up the symmetry group for a 
 simple orthorhombic supercell.


 Subroutine GETGRP returns: Found  2 space group operations
 (whereof  1 operations were pure point group operations)
 out of a pool of  8 trial point group operations.


The dynamic configuration has the point symmetry C_1 .
 The point group associated with its full space group is C_1h.


Analysis of constrained symmetry for selective dynamics:
=====================================================================
 Subroutine PRICEL returns following result:
 
  LATTYP: Found a simple orthorhombic cell.
 ALAT       =     4.2389998436
 B/A-ratio  =     1.9799246937
 C/A-ratio  =     3.5266101354
  
  Lattice vectors:
  
 A1 = (   4.2389998436,   0.0000000000,   0.0000000000)
 A2 = (   0.0000000000,   8.3929004669,   0.0000000000)
 A3 = (   0.0000000000,   0.0000000000,  14.9492998123)
 
   2 primitive cells build up your supercell.
 

 Routine SETGRP: Setting up the symmetry group for a 
 simple orthorhombic supercell.


 Subroutine GETGRP returns: Found  2 space group operations
 (whereof  1 operations were pure point group operations)
 out of a pool of  8 trial point group operations.


The constrained configuration has the point symmetry C_1 .
 The point group associated with its full space group is C_1h.


 Subroutine INISYM returns: Found  2 space group operations
 (whereof  1 operations are pure point group operations),
 and found     2 'primitive' translations

 
 
 KPOINTS: K-Points                                

Automatic generation of k-mesh.
Space group operators:
 irot       det(A)        alpha          n_x          n_y          n_z        tau_x        tau_y        tau_z
    1     1.000000     0.000000     1.000000     0.000000     0.000000     0.000000     0.000000     0.000000
    2    -1.000000   179.999999     1.000000     0.000000     0.000000     0.250000     0.000000     0.000000
 
 Subroutine IBZKPT returns following result:
 ===========================================
 
 Found      9 irreducible k-points:
 
 Following reciprocal coordinates:
            Coordinates               Weight
  0.000000  0.000000  0.000000      1.000000
  0.250000  0.000000  0.000000      2.000000
  0.500000  0.000000  0.000000      1.000000
  0.000000  0.250000  0.000000      2.000000
  0.250000  0.250000  0.000000      4.000000
  0.500000  0.250000  0.000000      2.000000
  0.000000  0.500000  0.000000      1.000000
  0.250000  0.500000  0.000000      2.000000
  0.500000  0.500000  0.000000      1.000000
 
 Following cartesian coordinates:
            Coordinates               Weight
  0.000000  0.000000  0.000000      1.000000
  0.029488  0.000000  0.000000      2.000000
  0.058976  0.000000  0.000000      1.000000
  0.000000  0.029787  0.000000      2.000000
  0.029488  0.029787  0.000000      4.000000
  0.058976  0.029787  0.000000      2.000000
  0.000000  0.059574  0.000000      1.000000
  0.029488  0.059574  0.000000      2.000000
  0.058976  0.059574  0.000000      1.000000
 


--------------------------------------------------------------------------------------------------------




 Dimension of arrays:
   k-points           NKPTS =      9   k-points in BZ     NKDIM =      9   number of bands    NBANDS=    120
   number of dos      NEDOS =    301   number of ions     NIONS =     24
   non local maximal  LDIM  =      6   non local SUM 2l+1 LMDIM =     18
   total plane-waves  NPLWV = 184320
   max r-space proj   IRMAX =   3303   max aug-charges    IRDMAX=  19745
   dimension x,y,z NGX =    48 NGY =   48 NGZ =   80
   dimension x,y,z NGXF=    96 NGYF=   96 NGZF=  160
   support grid    NGXF=    96 NGYF=   96 NGZF=  160
   ions per type =               8  16
   NGX,Y,Z   is equivalent  to a cutoff of   9.41,  9.51,  8.90 a.u.
   NGXF,Y,Z  is equivalent  to a cutoff of  18.82, 19.02, 17.79 a.u.

 SYSTEM =  alloy-surf                              
 POSCAR =  InPd2                                   

 Startparameter for this run:
   NWRITE =      0    write-flag & timer
   PREC   = normal    normal or accurate (medium, high low for compatibility)
   ISTART =      0    job   : 0-new  1-cont  2-samecut
   ICHARG =      2    charge: 1-file 2-atom 10-const
   ISPIN  =      1    spin polarized calculation?
   LNONCOLLINEAR =      F non collinear calculations
   LSORBIT =      F    spin-orbit coupling
   INIWAV =      1    electr: 0-lowe 1-rand  2-diag
   LASPH  =      F    aspherical Exc in radial PAW
   METAGGA=      F    non-selfconsistent MetaGGA calc.

 Electronic Relaxation 1
   ENCUT  =  450.0 eV  33.07 Ry    5.75 a.u.  14.66 14.52 25.86*2*pi/ulx,y,z
   ENINI  =  450.0     initial cutoff
   ENAUG  =  416.2 eV  augmentation charge cutoff
   NELM   =    100;   NELMIN=  5; NELMDL= -7     # of ELM steps 
   EDIFF  = 0.1E-04   stopping-criterion for ELM
   LREAL  =      T    real-space projection
   NLSPLINE    = F    spline interpolate recip. space projectors
   LCOMPAT=      F    compatible to vasp.4.4
   GGA_COMPAT  = T    GGA compatible to vasp.4.4-vasp.4.6
   LMAXPAW     = -100 max onsite density
   LMAXMIX     =    2 max onsite mixed and CHGCAR
   VOSKOWN=      0    Vosko Wilk Nusair interpolation
   ROPT   =   -0.00050  -0.00050
 Ionic relaxation
   EDIFFG = -.3E-01   stopping-criterion for IOM
   NSW    =    200    number of steps for IOM
   NBLOCK =      1;   KBLOCK =    200    inner block; outer block 
   IBRION =      1    ionic relax: 0-MD 1-quasi-New 2-CG
   NFREE  =      2    steps in history (QN), initial steepest desc. (CG)
   ISIF   =      2    stress and relaxation
   IWAVPR =     11    prediction:  0-non 1-charg 2-wave 3-comb
   ISYM   =      2    0-nonsym 1-usesym 2-fastsym
   LCORR  =      T    Harris-Foulkes like correction to forces

   POTIM  = 0.1500    time-step for ionic-motion
   TEIN   =    0.0    initial temperature
   TEBEG  =    0.0;   TEEND  =   0.0 temperature during run
   SMASS  =  -3.00    Nose mass-parameter (am)
   estimated Nose-frequenzy (Omega)   =  0.10E-29 period in steps =****** mass=  -0.164E-26a.u.
   SCALEE = 1.0000    scale energy and forces
   NPACO  =    256;   APACO  = 16.0  distance and # of slots for P.C.
   PSTRESS=    0.0 pullay stress

  Mass of Ions in am
   POMASS = 114.82106.42
  Ionic Valenz
   ZVAL   =   3.00 10.00
  Atomic Wigner-Seitz radii
   RWIGS  =  -1.00 -1.00
  virtual crystal weights 
   VCA    =   1.00  1.00
   NELECT =     184.0000    total number of electrons
   NUPDOWN=      -1.0000    fix difference up-down

 DOS related values:
   EMIN   =  10.00;   EMAX   =-10.00  energy-range for DOS
   EFERMI =   0.00
   ISMEAR =     0;   SIGMA  =   0.03  broadening in eV -4-tet -1-fermi 0-gaus

 Electronic relaxation 2 (details)
   IALGO  =     68    algorithm
   LDIAG  =      T    sub-space diagonalisation (order eigenvalues)
   LSUBROT=      F    optimize rotation matrix (better conditioning)
   TURBO    =      0    0=normal 1=particle mesh
   IRESTART =      0    0=no restart 2=restart with 2 vectors
   NREBOOT  =      0    no. of reboots
   NMIN     =      0    reboot dimension
   EREF     =   0.00    reference energy to select bands
   IMIX   =      4    mixing-type and parameters
     AMIX     =   0.10;   BMIX     =  3.00
     AMIX_MAG =   0.40;   BMIX_MAG =  3.00
     AMIN     =   0.01
     WC   =   100.;   INIMIX=   1;  MIXPRE=   1;  MAXMIX= -45

 Intra band minimization:
   WEIMIN = 0.0010     energy-eigenvalue tresh-hold
   EBREAK =  0.21E-07  absolut break condition
   DEPER  =   0.30     relativ break condition  

   TIME   =   0.40     timestep for ELM

  volume/ion in A,a.u.               =      44.32       299.10
  Fermi-wavevector in a.u.,A,eV,Ry     =   0.912162  1.723736 11.320586  0.832040
  Thomas-Fermi vector in A             =   2.036526
 
 Write flags
   LWAVE        =      F    write WAVECAR
   LDOWNSAMPLE  =      F    k-point downsampling of WAVECAR
   LCHARG       =      F    write CHGCAR
   LVTOT        =      F    write LOCPOT, total local potential
   LVHAR        =      F    write LOCPOT, Hartree potential only
   LELF         =      F    write electronic localiz. function (ELF)
   LORBIT       =      0    0 simple, 1 ext, 2 COOP (PROOUT), +10 PAW based schemes


 Dipole corrections
   LMONO  =      F    monopole corrections only (constant potential shift)
   LDIPOL =      T    correct potential (dipole corrections)
   IDIPOL =      3    1-x, 2-y, 3-z, 4-all directions 
   EPSILON=  1.0000000 bulk dielectric constant

 Exchange correlation treatment:
   GGA     =    PE    GGA type
   LEXCH   =     8    internal setting for exchange type
   VOSKOWN=      0    Vosko Wilk Nusair interpolation
   LHFCALC =     F    Hartree Fock is set to
   LHFONE  =     F    Hartree Fock one center treatment
   AEXX    =    0.0000 exact exchange contribution

 Linear response parameters
   LEPSILON=     F    determine dielectric tensor
   LRPA    =     F    only Hartree local field effects (RPA)
   LNABLA  =     F    use nabla operator in PAW spheres
   LVEL    =     F    velocity operator in full k-point grid
   LINTERFAST=   F  fast interpolation
   KINTER  =     0    interpolate to denser k-point grid
   CSHIFT  =0.1000    complex shift for real part using Kramers Kronig
   OMEGAMAX=  -1.0    maximum frequency
   DEG_THRESHOLD= 0.2000000E-02 threshold for treating states as degnerate
   RTIME   =   -0.100 relaxation time in fs
  (WPLASMAI=    0.000 imaginary part of plasma frequency in eV, 0.658/RTIME)
   DFIELD  = 0.0000000 0.0000000 0.0000000 field for delta impulse in time
 
 Orbital magnetization related:
   ORBITALMAG=     F  switch on orbital magnetization
   LCHIMAG   =     F  perturbation theory with respect to B field
   DQ        =  0.001000  dq finite difference perturbation B field
   LLRAUG    =     F  two centre corrections for induced B field



--------------------------------------------------------------------------------------------------------


 quasi-Newton-method for relaxation of ions
   using selective dynamics as specified on POSCAR
   WARNING: If single coordinates had been selected the selection of coordinates
            is made according to the corresponding   d i r e c t   coordinates!
            Don't support selection of single cartesian coordinates -- sorry ...
  !
 charge density and potential will be updated during run
 non-spin polarized calculation
 RMM-DIIS sequential band-by-band and
  variant of blocked Davidson during initial phase
 perform sub-space diagonalisation
    before iterative eigenvector-optimisation
 modified Broyden-mixing scheme, WC =      100.0
 initial mixing is a Kerker type mixing with AMIX =  0.1000 and BMIX =      3.0000
 Hartree-type preconditioning will be used
 using additional bands           28
 real space projection scheme for non local part
 use partial core corrections
 calculate Harris-corrections to forces 
   (improved forces if not selfconsistent)
 use gradient corrections 
 use of overlap-Matrix (Vanderbilt PP)
 Gauss-broadening in eV      SIGMA  =   0.03


--------------------------------------------------------------------------------------------------------


  energy-cutoff  :      450.00
  volume of cell :     1063.72
      direct lattice vectors                 reciprocal lattice vectors
     8.477999687  0.000000000  0.000000000     0.117952352  0.000000000  0.000000000
     0.000000000  8.392900467  0.000000000     0.000000000  0.119148321  0.000000000
     0.000000000  0.000000000 14.949299812     0.000000000  0.000000000  0.066892765

  length of vectors
     8.477999687  8.392900467 14.949299812     0.117952352  0.119148321  0.066892765


 
 k-points in units of 2pi/SCALE and weight: K-Points                                
   0.00000000  0.00000000  0.00000000       0.062
   0.02948809  0.00000000  0.00000000       0.125
   0.05897618  0.00000000  0.00000000       0.062
   0.00000000  0.02978708  0.00000000       0.125
   0.02948809  0.02978708  0.00000000       0.250
   0.05897618  0.02978708  0.00000000       0.125
   0.00000000  0.05957416  0.00000000       0.062
   0.02948809  0.05957416  0.00000000       0.125
   0.05897618  0.05957416  0.00000000       0.062
 
 k-points in reciprocal lattice and weights: K-Points                                
   0.00000000  0.00000000  0.00000000       0.062
   0.25000000  0.00000000  0.00000000       0.125
   0.50000000  0.00000000  0.00000000       0.062
   0.00000000  0.25000000  0.00000000       0.125
   0.25000000  0.25000000  0.00000000       0.250
   0.50000000  0.25000000  0.00000000       0.125
   0.00000000  0.50000000  0.00000000       0.062
   0.25000000  0.50000000  0.00000000       0.125
   0.50000000  0.50000000  0.00000000       0.062
 
 position of ions in fractional coordinates (direct lattice) 
   0.37500000  0.60020000  0.04243000
   0.12500000  0.10024000  0.09735000
   0.37500000  0.89911997  0.23379999
   0.12500000  0.39886001  0.28895000
   0.87500000  0.60020000  0.04243000
   0.62500000  0.10024000  0.09735000
   0.87500000  0.89911997  0.23379999
   0.62500000  0.39886001  0.28895000
   0.37500000  0.26927999  0.00000000
   0.37500000  0.92720002  0.03439000
   0.12500000  0.42734000  0.10539000
   0.12500000  0.76925999  0.13970999
   0.37500000  0.23010001  0.19152001
   0.37500000  0.57201999  0.22599000
   0.12500000  0.07196000  0.29675999
   0.12500000  0.72987998  0.33107001
   0.87500000  0.26927999  0.00000000
   0.87500000  0.92720002  0.03439000
   0.62500000  0.42734000  0.10539000
   0.62500000  0.76925999  0.13970999
   0.87500000  0.23010001  0.19152001
   0.87500000  0.57201999  0.22599000
   0.62500000  0.07196000  0.29675999
   0.62500000  0.72987998  0.33107001
 
 position of ions in cartesian coordinates  (Angst):
   3.17924988  5.03741884  0.63429877
   1.05974996  0.84130434  1.45531436
   3.17924988  7.54622444  3.49514621
   1.05974996  3.34759234  4.31960012
   7.41824973  5.03741884  0.63429877
   5.29874980  0.84130434  1.45531436
   7.41824973  7.54622444  3.49514621
   5.29874980  3.34759234  4.31960012
   3.17924988  2.26004013  0.00000000
   3.17924988  7.78189748  0.51410640
   1.05974996  3.58662209  1.57550667
   1.05974996  6.45632252  2.08856659
   3.17924988  1.93120645  2.86308998
   3.17924988  4.80090688  3.37839223
   1.05974996  0.60395314  4.43635410
   1.05974996  6.12580999  4.94926478
   7.41824973  2.26004013  0.00000000
   7.41824973  7.78189748  0.51410640
   5.29874980  3.58662209  1.57550667
   5.29874980  6.45632252  2.08856659
   7.41824973  1.93120645  2.86308998
   7.41824973  4.80090688  3.37839223
   5.29874980  0.60395314  4.43635410
   5.29874980  6.12580999  4.94926478
 


--------------------------------------------------------------------------------------------------------


 k-point  1 :   0.0000 0.0000 0.0000  plane waves:   23095
 k-point  2 :   0.2500 0.0000 0.0000  plane waves:   23061
 k-point  3 :   0.5000 0.0000 0.0000  plane waves:   23086
 k-point  4 :   0.0000 0.2500 0.0000  plane waves:   23039
 k-point  5 :   0.2500 0.2500 0.0000  plane waves:   23055
 k-point  6 :   0.5000 0.2500 0.0000  plane waves:   23058
 k-point  7 :   0.0000 0.5000 0.0000  plane waves:   23042
 k-point  8 :   0.2500 0.5000 0.0000  plane waves:   23024
 k-point  9 :   0.5000 0.5000 0.0000  plane waves:   22972

 maximum and minimum number of plane-waves per node :     23095    22972

 maximum number of plane-waves:     23095
 maximum index in each direction: 
   IXMAX=   14   IYMAX=   14   IZMAX=   25
   IXMIN=  -15   IYMIN=  -15   IZMIN=  -25


 serial   3D FFT for wavefunctions
 parallel 3D FFT for charge:
    minimum data exchange during FFTs selected (reduces bandwidth)


 total amount of memory used by VASP MPI-rank0    93321. kBytes
=======================================================================

   base      :      30000. kBytes
   nonlr-proj:       9841. kBytes
   fftplans  :       4921. kBytes
   grid      :      14352. kBytes
   one-center:        373. kBytes
   wavefun   :      33834. kBytes
 
     INWAV:  cpu time    0.0000: real time    0.0002
 Broyden mixing: mesh for mixing (old mesh)
   NGX = 29   NGY = 29   NGZ = 51
  (NGX  = 96   NGY  = 96   NGZ  =160)
  gives a total of  42891 points

 initial charge density was supplied:
 charge density of overlapping atoms calculated
 number of electron     184.0000000 magnetization 
 keeping initial charge density in first step


--------------------------------------------------------------------------------------------------------


 Maximum index for non-local projection operator         3164
 Maximum index for augmentation-charges         1683 (set IRDMAX)


--------------------------------------------------------------------------------------------------------


 First call to EWALD:  gamma=   0.174
 Maximum number of real-space cells 3x 3x 2
 Maximum number of reciprocal cells 2x 2x 4

    FEWALD:  cpu time    0.0020: real time    0.0024


--------------------------------------- Iteration      1(   1)  ---------------------------------------


    POTLOK:  cpu time    0.1760: real time    0.1780
    SETDIJ:  cpu time    0.0180: real time    0.0171
     EDDAV:  cpu time   13.3120: real time   13.3444
       DOS:  cpu time    0.0010: real time    0.0014
    --------------------------------------------
      LOOP:  cpu time   13.5069: real time   13.5409

 eigenvalue-minimisations  :  2160
 total energy-change (2. order) : 0.1030663E+04  (-0.6764449E+04)
 number of electron     184.0000000 magnetization 
 augmentation part      184.0000000 magnetization 

 DIPCOR: dipole corrections for dipol
 direction  3 min pos   107,
 dipolmoment           0.000000      0.000000     -0.001028 electrons x Angstroem
 Tr[quadrupol]     -2015.947737

 energy correction for charged system         0.000000 eV
 dipol+quadrupol energy correction           -0.000000 eV
 added-field ion interaction          0.001497 eV  (added to PSCEN)


 Free energy of the ion-electron system (eV)
  ---------------------------------------------------
  alpha Z        PSCENC =       178.92873924
  Ewald energy   TEWEN  =      8807.69689948
  -Hartree energ DENC   =    -22485.32437829
  -exchange      EXHF   =         0.00000000
  -V(xc)+E(xc)   XCENC  =      -922.86208649
  PAW double counting   =     13661.59498581   -12191.00304961
  entropy T*S    EENTRO =        -0.00564861
  eigenvalues    EBANDS =       595.34569617
  atomic energy  EATOM  =     13386.29214936
  Solvation  Ediel_sol  =         0.00000000
  ---------------------------------------------------
  free energy    TOTEN  =      1030.66330705 eV

  energy without entropy =     1030.66895567  energy(sigma->0) =     1030.66613136


--------------------------------------------------------------------------------------------------------




--------------------------------------- Iteration      1(   2)  ---------------------------------------


     EDDAV:  cpu time   15.0407: real time   15.0756
       DOS:  cpu time    0.0020: real time    0.0016
    --------------------------------------------
      LOOP:  cpu time   15.0427: real time   15.0772

 eigenvalue-minimisations  :  2520
 total energy-change (2. order) :-0.1062478E+04  (-0.9826998E+03)
 number of electron     184.0000000 magnetization 
 augmentation part      184.0000000 magnetization 

 DIPCOR: dipole corrections for dipol
 direction  3 min pos   107,
 dipolmoment           0.000000      0.000000     -0.001028 electrons x Angstroem
 Tr[quadrupol]     -2015.947737

 energy correction for charged system         0.000000 eV
 dipol+quadrupol energy correction           -0.000000 eV
 added-field ion interaction          0.001497 eV  (added to PSCEN)


 Free energy of the ion-electron system (eV)
  ---------------------------------------------------
  alpha Z        PSCENC =       178.92873924
  Ewald energy   TEWEN  =      8807.69689948
  -Hartree energ DENC   =    -22485.32437829
  -exchange      EXHF   =         0.00000000
  -V(xc)+E(xc)   XCENC  =      -922.86208649
  PAW double counting   =     13661.59498581   -12191.00304961
  entropy T*S    EENTRO =        -0.00845458
  eigenvalues    EBANDS =      -467.12935203
  atomic energy  EATOM  =     13386.29214936
  Solvation  Ediel_sol  =         0.00000000
  ---------------------------------------------------
  free energy    TOTEN  =       -31.81454711 eV

  energy without entropy =      -31.80609253  energy(sigma->0) =      -31.81031982


--------------------------------------------------------------------------------------------------------




--------------------------------------- Iteration      1(   3)  ---------------------------------------


     EDDAV:  cpu time   15.2107: real time   15.2494
       DOS:  cpu time    0.0020: real time    0.0016
    --------------------------------------------
      LOOP:  cpu time   15.2127: real time   15.2510

 eigenvalue-minimisations  :  2556
 total energy-change (2. order) :-0.7572057E+02  (-0.7190819E+02)
 number of electron     184.0000000 magnetization 
 augmentation part      184.0000000 magnetization 

 DIPCOR: dipole corrections for dipol
 direction  3 min pos   107,
 dipolmoment           0.000000      0.000000     -0.001028 electrons x Angstroem
 Tr[quadrupol]     -2015.947737

 energy correction for charged system         0.000000 eV
 dipol+quadrupol energy correction           -0.000000 eV
 added-field ion interaction          0.001497 eV  (added to PSCEN)


 Free energy of the ion-electron system (eV)
  ---------------------------------------------------
  alpha Z        PSCENC =       178.92873924
  Ewald energy   TEWEN  =      8807.69689948
  -Hartree energ DENC   =    -22485.32437829
  -exchange      EXHF   =         0.00000000
  -V(xc)+E(xc)   XCENC  =      -922.86208649
  PAW double counting   =     13661.59498581   -12191.00304961
  entropy T*S    EENTRO =        -0.00810103
  eigenvalues    EBANDS =      -542.85027585
  atomic energy  EATOM  =     13386.29214936
  Solvation  Ediel_sol  =         0.00000000
  ---------------------------------------------------
  free energy    TOTEN  =      -107.53511738 eV

  energy without entropy =     -107.52701635  energy(sigma->0) =     -107.53106687


--------------------------------------------------------------------------------------------------------




--------------------------------------- Iteration      1(   4)  ---------------------------------------


     EDDAV:  cpu time   15.4676: real time   15.5042
       DOS:  cpu time    0.0010: real time    0.0016
    --------------------------------------------
      LOOP:  cpu time   15.4686: real time   15.5058

 eigenvalue-minimisations  :  2604
 total energy-change (2. order) :-0.2086307E+01  (-0.2072758E+01)
 number of electron     184.0000000 magnetization 
 augmentation part      184.0000000 magnetization 

 DIPCOR: dipole corrections for dipol
 direction  3 min pos   107,
 dipolmoment           0.000000      0.000000     -0.001028 electrons x Angstroem
 Tr[quadrupol]     -2015.947737

 energy correction for charged system         0.000000 eV
 dipol+quadrupol energy correction           -0.000000 eV
 added-field ion interaction          0.001497 eV  (added to PSCEN)


 Free energy of the ion-electron system (eV)
  ---------------------------------------------------
  alpha Z        PSCENC =       178.92873924
  Ewald energy   TEWEN  =      8807.69689948
  -Hartree energ DENC   =    -22485.32437829
  -exchange      EXHF   =         0.00000000
  -V(xc)+E(xc)   XCENC  =      -922.86208649
  PAW double counting   =     13661.59498581   -12191.00304961
  entropy T*S    EENTRO =        -0.00953096
  eigenvalues    EBANDS =      -544.93515248
  atomic energy  EATOM  =     13386.29214936
  Solvation  Ediel_sol  =         0.00000000
  ---------------------------------------------------
  free energy    TOTEN  =      -109.62142394 eV

  energy without entropy =     -109.61189299  energy(sigma->0) =     -109.61665847


--------------------------------------------------------------------------------------------------------




--------------------------------------- Iteration      1(   5)  ---------------------------------------


     EDDAV:  cpu time   15.6296: real time   15.6662
       DOS:  cpu time    0.0010: real time    0.0016
    --------------------------------------------
      LOOP:  cpu time   15.6306: real time   15.6678

 eigenvalue-minimisations  :  2640
 total energy-change (2. order) :-0.6557566E-01  (-0.6554455E-01)
 number of electron     184.0000000 magnetization 
 augmentation part      184.0000000 magnetization 

 DIPCOR: dipole corrections for dipol
 direction  3 min pos   107,
 dipolmoment           0.000000      0.000000     -0.001028 electrons x Angstroem
 Tr[quadrupol]     -2015.947737

 energy correction for charged system         0.000000 eV
 dipol+quadrupol energy correction           -0.000000 eV
 added-field ion interaction          0.001497 eV  (added to PSCEN)


 Free energy of the ion-electron system (eV)
  ---------------------------------------------------
  alpha Z        PSCENC =       178.92873924
  Ewald energy   TEWEN  =      8807.69689948
  -Hartree energ DENC   =    -22485.32437829
  -exchange      EXHF   =         0.00000000
  -V(xc)+E(xc)   XCENC  =      -922.86208649
  PAW double counting   =     13661.59498581   -12191.00304961
  entropy T*S    EENTRO =        -0.00956190
  eigenvalues    EBANDS =      -545.00069720
  atomic energy  EATOM  =     13386.29214936
  Solvation  Ediel_sol  =         0.00000000
  ---------------------------------------------------
  free energy    TOTEN  =      -109.68699961 eV

  energy without entropy =     -109.67743770  energy(sigma->0) =     -109.68221865


--------------------------------------------------------------------------------------------------------




--------------------------------------- Iteration      1(   6)  ---------------------------------------


     EDDAV:  cpu time   16.9564: real time   16.9948
       DOS:  cpu time    0.0010: real time    0.0016
    --------------------------------------------
      LOOP:  cpu time   16.9574: real time   16.9964

 eigenvalue-minimisations  :  2916
 total energy-change (2. order) :-0.3614221E-02  (-0.3613785E-02)
 number of electron     184.0000000 magnetization 
 augmentation part      184.0000000 magnetization 

 DIPCOR: dipole corrections for dipol
 direction  3 min pos   107,
 dipolmoment           0.000000      0.000000     -0.001028 electrons x Angstroem
 Tr[quadrupol]     -2015.947737

 energy correction for charged system         0.000000 eV
 dipol+quadrupol energy correction           -0.000000 eV
 added-field ion interaction          0.001497 eV  (added to PSCEN)


 Free energy of the ion-electron system (eV)
  ---------------------------------------------------
  alpha Z        PSCENC =       178.92873924
  Ewald energy   TEWEN  =      8807.69689948
  -Hartree energ DENC   =    -22485.32437829
  -exchange      EXHF   =         0.00000000
  -V(xc)+E(xc)   XCENC  =      -922.86208649
  PAW double counting   =     13661.59498581   -12191.00304961
  entropy T*S    EENTRO =        -0.00956380
  eigenvalues    EBANDS =      -545.00430952
  atomic energy  EATOM  =     13386.29214936
  Solvation  Ediel_sol  =         0.00000000
  ---------------------------------------------------
  free energy    TOTEN  =      -109.69061383 eV

  energy without entropy =     -109.68105003  energy(sigma->0) =     -109.68583193


--------------------------------------------------------------------------------------------------------




--------------------------------------- Iteration      1(   7)  ---------------------------------------


     EDDAV:  cpu time   15.8546: real time   15.8938
       DOS:  cpu time    0.0020: real time    0.0016
    CHARGE:  cpu time    0.6849: real time    0.6861
    MIXING:  cpu time    0.0040: real time    0.0047
    --------------------------------------------
      LOOP:  cpu time   16.5455: real time   16.5862

 eigenvalue-minimisations  :  2688
 total energy-change (2. order) :-0.1180757E-03  (-0.1180726E-03)
 number of electron     183.9999756 magnetization 
 augmentation part       62.2640825 magnetization 

 DIPCOR: dipole corrections for dipol
 direction  3 min pos   107,
 dipolmoment           0.000000      0.000000     -0.001028 electrons x Angstroem
 Tr[quadrupol]     -2015.947737

 energy correction for charged system         0.000000 eV
 dipol+quadrupol energy correction           -0.000000 eV
 added-field ion interaction          0.001497 eV  (added to PSCEN)


 Broyden mixing:
  rms(total) = 0.17750E+01    rms(broyden)= 0.17750E+01
  rms(prec ) = 0.19301E+01
  weight for this iteration     100.00

 Free energy of the ion-electron system (eV)
  ---------------------------------------------------
  alpha Z        PSCENC =       178.92873924
  Ewald energy   TEWEN  =      8807.69689948
  -Hartree energ DENC   =    -22485.32437829
  -exchange      EXHF   =         0.00000000
  -V(xc)+E(xc)   XCENC  =      -922.86208649
  PAW double counting   =     13661.59498581   -12191.00304961
  entropy T*S    EENTRO =        -0.00956387
  eigenvalues    EBANDS =      -545.00442752
  atomic energy  EATOM  =     13386.29214936
  Solvation  Ediel_sol  =         0.00000000
  ---------------------------------------------------
  free energy    TOTEN  =      -109.69073190 eV

  energy without entropy =     -109.68116803  energy(sigma->0) =     -109.68594996


--------------------------------------------------------------------------------------------------------




--------------------------------------- Iteration      1(   8)  ---------------------------------------


    POTLOK:  cpu time    0.1680: real time    0.1682
    SETDIJ:  cpu time    0.0150: real time    0.0154
    EDDIAG:  cpu time    2.3676: real time    2.3741
  RMM-DIIS:  cpu time    8.2078: real time    8.2253
    ORTHCH:  cpu time    0.4869: real time    0.4889
       DOS:  cpu time    0.0010: real time    0.0010
    CHARGE:  cpu time    0.6789: real time    0.6800
    MIXING:  cpu time    0.0050: real time    0.0051
    --------------------------------------------
      LOOP:  cpu time   11.9302: real time   11.9580

 eigenvalue-minimisations  :  2171
 total energy-change (2. order) : 0.4492829E+00  (-0.4899302E-02)
 number of electron     183.9999756 magnetization 
 augmentation part       62.3962044 magnetization 

 DIPCOR: dipole corrections for dipol
 direction  3 min pos   107,
 dipolmoment           0.000000      0.000000     -0.000391 electrons x Angstroem
 Tr[quadrupol]     -2016.285058

 energy correction for charged system         0.000000 eV
 dipol+quadrupol energy correction           -0.000000 eV
 added-field ion interaction          0.000569 eV  (added to PSCEN)


 Broyden mixing:
  rms(total) = 0.15947E+01    rms(broyden)= 0.15947E+01
  rms(prec ) = 0.17490E+01
  weight for this iteration     100.00

 eigenvalues of (default mixing * dielectric matrix)
  average eigenvalue GAMMA=   9.3685
  9.3685

 Free energy of the ion-electron system (eV)
  ---------------------------------------------------
  alpha Z        PSCENC =       178.92781167
  Ewald energy   TEWEN  =      8807.69689948
  -Hartree energ DENC   =    -22486.62877590
  -exchange      EXHF   =         0.00000000
  -V(xc)+E(xc)   XCENC  =      -922.87820888
  PAW double counting   =     13924.56006646   -12456.30601167
  entropy T*S    EENTRO =        -0.00984601
  eigenvalues    EBANDS =      -540.89553346
  atomic energy  EATOM  =     13386.29214936
  Solvation  Ediel_sol  =         0.00000000
  ---------------------------------------------------
  free energy    TOTEN  =      -109.24144897 eV

  energy without entropy =     -109.23160296  energy(sigma->0) =     -109.23652596


--------------------------------------------------------------------------------------------------------




--------------------------------------- Iteration      1(   9)  ---------------------------------------


    POTLOK:  cpu time    0.1630: real time    0.1637
    SETDIJ:  cpu time    0.0140: real time    0.0145
    EDDIAG:  cpu time    2.3696: real time    2.3758
  RMM-DIIS:  cpu time    8.1278: real time    8.1459
    ORTHCH:  cpu time    0.4969: real time    0.4978
       DOS:  cpu time    0.0010: real time    0.0010
    CHARGE:  cpu time    0.6789: real time    0.6803
    MIXING:  cpu time    0.0050: real time    0.0053
    --------------------------------------------
      LOOP:  cpu time   11.8562: real time   11.8842

 eigenvalue-minimisations  :  2166
 total energy-change (2. order) : 0.2714432E+01  (-0.3689716E+00)
 number of electron     183.9999752 magnetization 
 augmentation part       63.3949675 magnetization 

 DIPCOR: dipole corrections for dipol
 direction  3 min pos   104,
 dipolmoment           0.000000      0.000000      0.036703 electrons x Angstroem
 Tr[quadrupol]     -2019.402142

 energy correction for charged system         0.000000 eV
 dipol+quadrupol energy correction           -0.000115 eV
 added-field ion interaction         -0.375878 eV  (added to PSCEN)


 Broyden mixing:
  rms(total) = 0.31206E+00    rms(broyden)= 0.31204E+00
  rms(prec ) = 0.50768E+00
  weight for this iteration     100.00

 eigenvalues of (default mixing * dielectric matrix)
  average eigenvalue GAMMA=   5.7094
  1.9089  9.5100

 Free energy of the ion-electron system (eV)
  ---------------------------------------------------
  alpha Z        PSCENC =       178.55124943
  Ewald energy   TEWEN  =      8807.69689948
  -Hartree energ DENC   =    -22505.24066739
  -exchange      EXHF   =         0.00000000
  -V(xc)+E(xc)   XCENC  =      -922.75380065
  PAW double counting   =     16956.60847457   -15507.87097160
  entropy T*S    EENTRO =        -0.01171338
  eigenvalues    EBANDS =      -499.79863709
  atomic energy  EATOM  =     13386.29214936
  Solvation  Ediel_sol  =         0.00000000
  ---------------------------------------------------
  free energy    TOTEN  =      -106.52701728 eV

  energy without entropy =     -106.51530390  energy(sigma->0) =     -106.52116059


--------------------------------------------------------------------------------------------------------




--------------------------------------- Iteration      1(  10)  ---------------------------------------


    POTLOK:  cpu time    0.1610: real time    0.1622
    SETDIJ:  cpu time    0.0150: real time    0.0146
    EDDIAG:  cpu time    2.3636: real time    2.3696
  RMM-DIIS:  cpu time    7.9748: real time    7.9932
    ORTHCH:  cpu time    0.4889: real time    0.4893
       DOS:  cpu time    0.0000: real time    0.0010
    CHARGE:  cpu time    0.6759: real time    0.6774
    MIXING:  cpu time    0.0060: real time    0.0056
    --------------------------------------------
      LOOP:  cpu time   11.6852: real time   11.7128

 eigenvalue-minimisations  :  2169
 total energy-change (2. order) : 0.3754903E+00  (-0.3341184E-01)
 number of electron     183.9999753 magnetization 
 augmentation part       63.2469239 magnetization 

 DIPCOR: dipole corrections for dipol
 direction  3 min pos   109,
 dipolmoment           0.000000      0.000000     -0.032271 electrons x Angstroem
 Tr[quadrupol]     -2020.207017

 energy correction for charged system         0.000000 eV
 dipol+quadrupol energy correction           -0.000089 eV
 added-field ion interaction         -0.142018 eV  (added to PSCEN)


 Broyden mixing:
  rms(total) = 0.25322E+00    rms(broyden)= 0.25321E+00
  rms(prec ) = 0.40624E+00
  weight for this iteration     100.00

 eigenvalues of (default mixing * dielectric matrix)
  average eigenvalue GAMMA=   5.6578
  1.0261  7.7601  8.1871

 Free energy of the ion-electron system (eV)
  ---------------------------------------------------
  alpha Z        PSCENC =       178.78513552
  Ewald energy   TEWEN  =      8807.69689948
  -Hartree energ DENC   =    -22525.53478187
  -exchange      EXHF   =         0.00000000
  -V(xc)+E(xc)   XCENC  =      -922.30512718
  PAW double counting   =     17106.37427942   -15657.29465812
  entropy T*S    EENTRO =        -0.01309873
  eigenvalues    EBANDS =      -480.15232488
  atomic energy  EATOM  =     13386.29214936
  Solvation  Ediel_sol  =         0.00000000
  ---------------------------------------------------
  free energy    TOTEN  =      -106.15152702 eV

  energy without entropy =     -106.13842828  energy(sigma->0) =     -106.14497765


--------------------------------------------------------------------------------------------------------




--------------------------------------- Iteration      1(  11)  ---------------------------------------


    POTLOK:  cpu time    0.1620: real time    0.1621
    SETDIJ:  cpu time    0.0140: real time    0.0145
    EDDIAG:  cpu time    2.3706: real time    2.3775
  RMM-DIIS:  cpu time    8.0198: real time    8.0377
    ORTHCH:  cpu time    0.4889: real time    0.4896
       DOS:  cpu time    0.0010: real time    0.0009
    CHARGE:  cpu time    0.6759: real time    0.6781
    MIXING:  cpu time    0.0060: real time    0.0057
    --------------------------------------------
      LOOP:  cpu time   11.7382: real time   11.7660

 eigenvalue-minimisations  :  2167
 total energy-change (2. order) : 0.3651365E+00  (-0.4574241E-01)
 number of electron     183.9999753 magnetization 
 augmentation part       62.8343269 magnetization 

 DIPCOR: dipole corrections for dipol
 direction  3 min pos   112,
 dipolmoment           0.000000      0.000000     -0.096847 electrons x Angstroem
 Tr[quadrupol]     -2021.350699

 energy correction for charged system         0.000000 eV
 dipol+quadrupol energy correction           -0.000799 eV
 added-field ion interaction         -1.277030 eV  (added to PSCEN)


 Broyden mixing:
  rms(total) = 0.19733E+00    rms(broyden)= 0.19733E+00
  rms(prec ) = 0.29534E+00
  weight for this iteration     100.00

 eigenvalues of (default mixing * dielectric matrix)
  average eigenvalue GAMMA=   4.6645
  8.2710  6.9168  0.9469  2.5235

 Free energy of the ion-electron system (eV)
  ---------------------------------------------------
  alpha Z        PSCENC =       177.64941332
  Ewald energy   TEWEN  =      8807.69689948
  -Hartree energ DENC   =    -22559.72106884
  -exchange      EXHF   =         0.00000000
  -V(xc)+E(xc)   XCENC  =      -921.52367332
  PAW double counting   =     17022.99113151   -15571.66845946
  entropy T*S    EENTRO =        -0.01463298
  eigenvalues    EBANDS =      -447.48814960
  atomic energy  EATOM  =     13386.29214936
  Solvation  Ediel_sol  =         0.00000000
  ---------------------------------------------------
  free energy    TOTEN  =      -105.78639053 eV

  energy without entropy =     -105.77175756  energy(sigma->0) =     -105.77907405


--------------------------------------------------------------------------------------------------------




--------------------------------------- Iteration      1(  12)  ---------------------------------------


    POTLOK:  cpu time    0.1630: real time    0.1644
    SETDIJ:  cpu time    0.0140: real time    0.0145
    EDDIAG:  cpu time    2.3616: real time    2.3671
  RMM-DIIS:  cpu time    7.9868: real time    8.0051
    ORTHCH:  cpu time    0.4939: real time    0.4946
       DOS:  cpu time    0.0010: real time    0.0010
    CHARGE:  cpu time    0.6769: real time    0.6788
    MIXING:  cpu time    0.0060: real time    0.0057
    --------------------------------------------
      LOOP:  cpu time   11.7032: real time   11.7311

 eigenvalue-minimisations  :  2167
 total energy-change (2. order) : 0.1132957E+00  (-0.9490283E-02)
 number of electron     183.9999753 magnetization 
 augmentation part       62.7469293 magnetization 

 DIPCOR: dipole corrections for dipol
 direction  3 min pos   107,
 dipolmoment           0.000000      0.000000      0.019936 electrons x Angstroem
 Tr[quadrupol]     -2021.895927

 energy correction for charged system         0.000000 eV
 dipol+quadrupol energy correction           -0.000034 eV
 added-field ion interaction         -0.029028 eV  (added to PSCEN)


 Broyden mixing:
  rms(total) = 0.17831E+00    rms(broyden)= 0.17831E+00
  rms(prec ) = 0.24300E+00
  weight for this iteration     100.00

 eigenvalues of (default mixing * dielectric matrix)
  average eigenvalue GAMMA=   4.7986
  9.0272  9.0272  3.6100  1.1043  1.2244

 Free energy of the ion-electron system (eV)
  ---------------------------------------------------
  alpha Z        PSCENC =       178.89818107
  Ewald energy   TEWEN  =      8807.69689948
  -Hartree energ DENC   =    -22571.22841293
  -exchange      EXHF   =         0.00000000
  -V(xc)+E(xc)   XCENC  =      -921.26711984
  PAW double counting   =     16975.26548125   -15523.53286114
  entropy T*S    EENTRO =        -0.01409964
  eigenvalues    EBANDS =      -437.78331245
  atomic energy  EATOM  =     13386.29214936
  Solvation  Ediel_sol  =         0.00000000
  ---------------------------------------------------
  free energy    TOTEN  =      -105.67309485 eV

  energy without entropy =     -105.65899521  energy(sigma->0) =     -105.66604503


--------------------------------------------------------------------------------------------------------




--------------------------------------- Iteration      1(  13)  ---------------------------------------


    POTLOK:  cpu time    0.1610: real time    0.1620
    SETDIJ:  cpu time    0.0150: real time    0.0145
    EDDIAG:  cpu time    2.3526: real time    2.3594
  RMM-DIIS:  cpu time    8.1198: real time    8.1372
    ORTHCH:  cpu time    0.4899: real time    0.4911
       DOS:  cpu time    0.0010: real time    0.0010
    CHARGE:  cpu time    0.6799: real time    0.6817
    MIXING:  cpu time    0.0060: real time    0.0060
    --------------------------------------------
      LOOP:  cpu time   11.8252: real time   11.8528

 eigenvalue-minimisations  :  2179
 total energy-change (2. order) : 0.5661014E-01  (-0.4747545E-02)
 number of electron     183.9999754 magnetization 
 augmentation part       62.6335118 magnetization 

 DIPCOR: dipole corrections for dipol
 direction  3 min pos   104,
 dipolmoment           0.000000      0.000000      0.071941 electrons x Angstroem
 Tr[quadrupol]     -2022.299810

 energy correction for charged system         0.000000 eV
 dipol+quadrupol energy correction           -0.000441 eV
 added-field ion interaction         -0.736760 eV  (added to PSCEN)


 Broyden mixing:
  rms(total) = 0.16713E+00    rms(broyden)= 0.16713E+00
  rms(prec ) = 0.21805E+00
  weight for this iteration     100.00

 eigenvalues of (default mixing * dielectric matrix)
  average eigenvalue GAMMA=   5.6066
 11.5019 11.5019  6.3951  2.2589  1.0687  0.9133

 Free energy of the ion-electron system (eV)
  ---------------------------------------------------
  alpha Z        PSCENC =       178.19004186
  Ewald energy   TEWEN  =      8807.69689948
  -Hartree energ DENC   =    -22582.26466947
  -exchange      EXHF   =         0.00000000
  -V(xc)+E(xc)   XCENC  =      -921.01468626
  PAW double counting   =     16815.23349966   -15362.47393446
  entropy T*S    EENTRO =        -0.01328278
  eigenvalues    EBANDS =      -427.26250209
  atomic energy  EATOM  =     13386.29214936
  Solvation  Ediel_sol  =         0.00000000
  ---------------------------------------------------
  free energy    TOTEN  =      -105.61648471 eV

  energy without entropy =     -105.60320193  energy(sigma->0) =     -105.60984332


--------------------------------------------------------------------------------------------------------




--------------------------------------- Iteration      1(  14)  ---------------------------------------


    POTLOK:  cpu time    0.1620: real time    0.1631
    SETDIJ:  cpu time    0.0150: real time    0.0144
    EDDIAG:  cpu time    2.3416: real time    2.3482
  RMM-DIIS:  cpu time    8.2038: real time    8.2229
    ORTHCH:  cpu time    0.4969: real time    0.4981
       DOS:  cpu time    0.0010: real time    0.0010
    CHARGE:  cpu time    0.6789: real time    0.6797
    MIXING:  cpu time    0.0060: real time    0.0064
    --------------------------------------------
      LOOP:  cpu time   11.9052: real time   11.9337

 eigenvalue-minimisations  :  2179
 total energy-change (2. order) : 0.1224983E-01  (-0.1774907E-01)
 number of electron     183.9999753 magnetization 
 augmentation part       62.6733576 magnetization 

 DIPCOR: dipole corrections for dipol
 direction  3 min pos   109,
 dipolmoment           0.000000      0.000000     -0.129729 electrons x Angstroem
 Tr[quadrupol]     -2023.120947

 energy correction for charged system         0.000000 eV
 dipol+quadrupol energy correction           -0.001433 eV
 added-field ion interaction         -0.570911 eV  (added to PSCEN)


 Broyden mixing:
  rms(total) = 0.16743E+00    rms(broyden)= 0.16742E+00
  rms(prec ) = 0.27900E+00
  weight for this iteration     100.00

 eigenvalues of (default mixing * dielectric matrix)
  average eigenvalue GAMMA=   5.4525
 13.9909 11.9779  6.5817  0.9980  0.9980  1.8106  1.8106

 Free energy of the ion-electron system (eV)
  ---------------------------------------------------
  alpha Z        PSCENC =       178.35489795
  Ewald energy   TEWEN  =      8807.69689948
  -Hartree energ DENC   =    -22596.12467783
  -exchange      EXHF   =         0.00000000
  -V(xc)+E(xc)   XCENC  =      -920.71961656
  PAW double counting   =     16646.40675657   -15193.68271437
  entropy T*S    EENTRO =        -0.01093462
  eigenvalues    EBANDS =      -413.81699486
  atomic energy  EATOM  =     13386.29214936
  Solvation  Ediel_sol  =         0.00000000
  ---------------------------------------------------
  free energy    TOTEN  =      -105.60423488 eV

  energy without entropy =     -105.59330026  energy(sigma->0) =     -105.59876757


--------------------------------------------------------------------------------------------------------




--------------------------------------- Iteration      1(  15)  ---------------------------------------


    POTLOK:  cpu time    0.1630: real time    0.1640
    SETDIJ:  cpu time    0.0140: real time    0.0142
    EDDIAG:  cpu time    2.3436: real time    2.3501
  RMM-DIIS:  cpu time    8.1968: real time    8.2149
    ORTHCH:  cpu time    0.4979: real time    0.4992
       DOS:  cpu time    0.0010: real time    0.0010
    CHARGE:  cpu time    0.6859: real time    0.6877
    MIXING:  cpu time    0.0070: real time    0.0068
    --------------------------------------------
      LOOP:  cpu time   11.9092: real time   11.9379

 eigenvalue-minimisations  :  2180
 total energy-change (2. order) : 0.8951110E-01  (-0.8634864E-02)
 number of electron     183.9999753 magnetization 
 augmentation part       62.7229879 magnetization 

 DIPCOR: dipole corrections for dipol
 direction  3 min pos   105,
 dipolmoment           0.000000      0.000000      0.059841 electrons x Angstroem
 Tr[quadrupol]     -2023.434984

 energy correction for charged system         0.000000 eV
 dipol+quadrupol energy correction           -0.000305 eV
 added-field ion interaction         -0.437605 eV  (added to PSCEN)


 Broyden mixing:
  rms(total) = 0.83717E-01    rms(broyden)= 0.83708E-01
  rms(prec ) = 0.11518E+00
  weight for this iteration     100.00

 eigenvalues of (default mixing * dielectric matrix)
  average eigenvalue GAMMA=   5.1014
 15.4436 11.1280  5.8793  2.7815  2.7815  1.0178  1.0178  0.7621

 Free energy of the ion-electron system (eV)
  ---------------------------------------------------
  alpha Z        PSCENC =       178.48933251
  Ewald energy   TEWEN  =      8807.69689948
  -Hartree energ DENC   =    -22600.09702811
  -exchange      EXHF   =         0.00000000
  -V(xc)+E(xc)   XCENC  =      -920.63874407
  PAW double counting   =     16662.77859850   -15210.46727897
  entropy T*S    EENTRO =        -0.01187122
  eigenvalues    EBANDS =      -409.55678125
  atomic energy  EATOM  =     13386.29214936
  Solvation  Ediel_sol  =         0.00000000
  ---------------------------------------------------
  free energy    TOTEN  =      -105.51472378 eV

  energy without entropy =     -105.50285256  energy(sigma->0) =     -105.50878817


--------------------------------------------------------------------------------------------------------




--------------------------------------- Iteration      1(  16)  ---------------------------------------


    POTLOK:  cpu time    0.1660: real time    0.1659
    SETDIJ:  cpu time    0.0140: real time    0.0144
    EDDIAG:  cpu time    2.3506: real time    2.3571
  RMM-DIIS:  cpu time    8.0688: real time    8.0871
    ORTHCH:  cpu time    0.4909: real time    0.4917
       DOS:  cpu time    0.0010: real time    0.0010
    CHARGE:  cpu time    0.6829: real time    0.6847
    MIXING:  cpu time    0.0070: real time    0.0070
    --------------------------------------------
      LOOP:  cpu time   11.7812: real time   11.8088

 eigenvalue-minimisations  :  2182
 total energy-change (2. order) :-0.1198833E-01  (-0.1596960E-02)
 number of electron     183.9999753 magnetization 
 augmentation part       62.6880739 magnetization 

 DIPCOR: dipole corrections for dipol
 direction  3 min pos   103,
 dipolmoment           0.000000      0.000000      0.126630 electrons x Angstroem
 Tr[quadrupol]     -2023.524301

 energy correction for charged system         0.000000 eV
 dipol+quadrupol energy correction           -0.001366 eV
 added-field ion interaction         -1.667674 eV  (added to PSCEN)


 Broyden mixing:
  rms(total) = 0.96528E-01    rms(broyden)= 0.96526E-01
  rms(prec ) = 0.15217E+00
  weight for this iteration     100.00

 eigenvalues of (default mixing * dielectric matrix)
  average eigenvalue GAMMA=   5.2915
 17.1209 11.7437  8.0641  4.6954  1.3970  0.9881  0.9881  1.3131  1.3131

 Free energy of the ion-electron system (eV)
  ---------------------------------------------------
  alpha Z        PSCENC =       177.25820238
  Ewald energy   TEWEN  =      8807.69689948
  -Hartree energ DENC   =    -22603.14788187
  -exchange      EXHF   =         0.00000000
  -V(xc)+E(xc)   XCENC  =      -920.57547339
  PAW double counting   =     16654.07443554   -15201.67841375
  entropy T*S    EENTRO =        -0.01121221
  eigenvalues    EBANDS =      -405.43541765
  atomic energy  EATOM  =     13386.29214936
  Solvation  Ediel_sol  =         0.00000000
  ---------------------------------------------------
  free energy    TOTEN  =      -105.52671211 eV

  energy without entropy =     -105.51549990  energy(sigma->0) =     -105.52110600


--------------------------------------------------------------------------------------------------------




--------------------------------------- Iteration      1(  17)  ---------------------------------------


    POTLOK:  cpu time    0.1630: real time    0.1636
    SETDIJ:  cpu time    0.0150: real time    0.0144
    EDDIAG:  cpu time    2.3566: real time    2.3637
  RMM-DIIS:  cpu time    8.1578: real time    8.1755
    ORTHCH:  cpu time    0.4889: real time    0.4905
       DOS:  cpu time    0.0010: real time    0.0010
    CHARGE:  cpu time    0.6809: real time    0.6825
    MIXING:  cpu time    0.0080: real time    0.0075
    --------------------------------------------
      LOOP:  cpu time   11.8712: real time   11.8987

 eigenvalue-minimisations  :  2174
 total energy-change (2. order) : 0.1661451E-01  (-0.4476081E-02)
 number of electron     183.9999753 magnetization 
 augmentation part       62.7296853 magnetization 

 DIPCOR: dipole corrections for dipol
 direction  3 min pos   109,
 dipolmoment           0.000000      0.000000     -0.069527 electrons x Angstroem
 Tr[quadrupol]     -2023.944026

 energy correction for charged system         0.000000 eV
 dipol+quadrupol energy correction           -0.000412 eV
 added-field ion interaction         -0.305976 eV  (added to PSCEN)


 Broyden mixing:
  rms(total) = 0.53844E-01    rms(broyden)= 0.53838E-01
  rms(prec ) = 0.10083E+00
  weight for this iteration     100.00

 eigenvalues of (default mixing * dielectric matrix)
  average eigenvalue GAMMA=   5.1064
 18.1483 12.2101  8.6617  3.1573  3.1573  1.4190  1.4190  0.9715  0.9715  0.9488

 Free energy of the ion-electron system (eV)
  ---------------------------------------------------
  alpha Z        PSCENC =       178.62085451
  Ewald energy   TEWEN  =      8807.69689948
  -Hartree energ DENC   =    -22609.05113191
  -exchange      EXHF   =         0.00000000
  -V(xc)+E(xc)   XCENC  =      -920.48847014
  PAW double counting   =     16625.37715839   -15173.72946829
  entropy T*S    EENTRO =        -0.01143697
  eigenvalues    EBANDS =      -400.21665202
  atomic energy  EATOM  =     13386.29214936
  Solvation  Ediel_sol  =         0.00000000
  ---------------------------------------------------
  free energy    TOTEN  =      -105.51009760 eV

  energy without entropy =     -105.49866063  energy(sigma->0) =     -105.50437911


--------------------------------------------------------------------------------------------------------




--------------------------------------- Iteration      1(  18)  ---------------------------------------


    POTLOK:  cpu time    0.1630: real time    0.1647
    SETDIJ:  cpu time    0.0140: real time    0.0145
    EDDIAG:  cpu time    2.3616: real time    2.3674
  RMM-DIIS:  cpu time    8.0148: real time    8.0345
    ORTHCH:  cpu time    0.4979: real time    0.4986
       DOS:  cpu time    0.0010: real time    0.0010
    CHARGE:  cpu time    0.6849: real time    0.6866
    MIXING:  cpu time    0.0080: real time    0.0078
    --------------------------------------------
      LOOP:  cpu time   11.7452: real time   11.7750

 eigenvalue-minimisations  :  2177
 total energy-change (2. order) :-0.1078053E-01  (-0.5682249E-03)
 number of electron     183.9999753 magnetization 
 augmentation part       62.7383250 magnetization 

 DIPCOR: dipole corrections for dipol
 direction  3 min pos   111,
 dipolmoment           0.000000      0.000000     -0.120808 electrons x Angstroem
 Tr[quadrupol]     -2024.041131

 energy correction for charged system         0.000000 eV
 dipol+quadrupol energy correction           -0.001243 eV
 added-field ion interaction         -1.239207 eV  (added to PSCEN)


 Broyden mixing:
  rms(total) = 0.66482E-01    rms(broyden)= 0.66481E-01
  rms(prec ) = 0.13003E+00
  weight for this iteration     100.00

 eigenvalues of (default mixing * dielectric matrix)
  average eigenvalue GAMMA=   5.7725
 18.1910 18.1910  9.7372  5.9164  4.6100  1.3590  1.3590  1.1584  0.9533  1.0109
  1.0109

 Free energy of the ion-electron system (eV)
  ---------------------------------------------------
  alpha Z        PSCENC =       177.68679266
  Ewald energy   TEWEN  =      8807.69689948
  -Hartree energ DENC   =    -22610.79495898
  -exchange      EXHF   =         0.00000000
  -V(xc)+E(xc)   XCENC  =      -920.46923263
  PAW double counting   =     16613.69979724   -15162.18094568
  entropy T*S    EENTRO =        -0.01123151
  eigenvalues    EBANDS =      -397.44014806
  atomic energy  EATOM  =     13386.29214936
  Solvation  Ediel_sol  =         0.00000000
  ---------------------------------------------------
  free energy    TOTEN  =      -105.52087813 eV

  energy without entropy =     -105.50964661  energy(sigma->0) =     -105.51526237


--------------------------------------------------------------------------------------------------------




--------------------------------------- Iteration      1(  19)  ---------------------------------------


    POTLOK:  cpu time    0.1690: real time    0.1700
    SETDIJ:  cpu time    0.0150: real time    0.0145
    EDDIAG:  cpu time    2.3536: real time    2.3606
  RMM-DIIS:  cpu time    8.0748: real time    8.0929
    ORTHCH:  cpu time    0.4909: real time    0.4917
       DOS:  cpu time    0.0010: real time    0.0010
    CHARGE:  cpu time    0.6849: real time    0.6870
    MIXING:  cpu time    0.0090: real time    0.0082
    --------------------------------------------
      LOOP:  cpu time   11.7982: real time   11.8260

 eigenvalue-minimisations  :  2165
 total energy-change (2. order) : 0.1991189E-01  (-0.3438981E-02)
 number of electron     183.9999753 magnetization 
 augmentation part       62.6706141 magnetization 

 DIPCOR: dipole corrections for dipol
 direction  3 min pos   107,
 dipolmoment           0.000000      0.000000      0.027829 electrons x Angstroem
 Tr[quadrupol]     -2024.536932

 energy correction for charged system         0.000000 eV
 dipol+quadrupol energy correction           -0.000066 eV
 added-field ion interaction         -0.040520 eV  (added to PSCEN)


 Broyden mixing:
  rms(total) = 0.51317E-01    rms(broyden)= 0.51314E-01
  rms(prec ) = 0.68128E-01
  weight for this iteration     100.00

 eigenvalues of (default mixing * dielectric matrix)
  average eigenvalue GAMMA=   5.2022
 18.5853 15.7043  9.9988  6.4360  4.2164  1.3448  1.3448  1.3077  0.9544  0.9934
  0.9934  0.5473

 Free energy of the ion-electron system (eV)
  ---------------------------------------------------
  alpha Z        PSCENC =       178.88665691
  Ewald energy   TEWEN  =      8807.69689948
  -Hartree energ DENC   =    -22621.24202545
  -exchange      EXHF   =         0.00000000
  -V(xc)+E(xc)   XCENC  =      -920.36929933
  PAW double counting   =     16605.07606100   -15153.88534504
  entropy T*S    EENTRO =        -0.01126361
  eigenvalues    EBANDS =      -387.94479955
  atomic energy  EATOM  =     13386.29214936
  Solvation  Ediel_sol  =         0.00000000
  ---------------------------------------------------
  free energy    TOTEN  =      -105.50096623 eV

  energy without entropy =     -105.48970263  energy(sigma->0) =     -105.49533443


--------------------------------------------------------------------------------------------------------




--------------------------------------- Iteration      1(  20)  ---------------------------------------


    POTLOK:  cpu time    0.1620: real time    0.1632
    SETDIJ:  cpu time    0.0150: real time    0.0143
    EDDIAG:  cpu time    2.3646: real time    2.3714
  RMM-DIIS:  cpu time    7.9328: real time    7.9501
    ORTHCH:  cpu time    0.4979: real time    0.4996
       DOS:  cpu time    0.0010: real time    0.0010
    CHARGE:  cpu time    0.6869: real time    0.6883
    MIXING:  cpu time    0.0090: real time    0.0087
    --------------------------------------------
      LOOP:  cpu time   11.6692: real time   11.6967

 eigenvalue-minimisations  :  2166
 total energy-change (2. order) :-0.6989687E-02  (-0.4813805E-03)
 number of electron     183.9999753 magnetization 
 augmentation part       62.6562426 magnetization 

 DIPCOR: dipole corrections for dipol
 direction  3 min pos   105,
 dipolmoment           0.000000      0.000000      0.078971 electrons x Angstroem
 Tr[quadrupol]     -2024.558329

 energy correction for charged system         0.000000 eV
 dipol+quadrupol energy correction           -0.000531 eV
 added-field ion interaction         -0.577504 eV  (added to PSCEN)


 Broyden mixing:
  rms(total) = 0.54127E-01    rms(broyden)= 0.54126E-01
  rms(prec ) = 0.90400E-01
  weight for this iteration     100.00

 eigenvalues of (default mixing * dielectric matrix)
  average eigenvalue GAMMA=   4.9444
 18.7235 16.0984 10.0118  6.4009  4.1769  1.0706  1.3268  1.3268  1.3785  1.0068
  1.0068  0.9331  0.8163

 Free energy of the ion-electron system (eV)
  ---------------------------------------------------
  alpha Z        PSCENC =       178.34920773
  Ewald energy   TEWEN  =      8807.69689948
  -Hartree energ DENC   =    -22622.04291125
  -exchange      EXHF   =         0.00000000
  -V(xc)+E(xc)   XCENC  =      -920.35296925
  PAW double counting   =     16622.32457497   -15171.11427171
  entropy T*S    EENTRO =        -0.01104729
  eigenvalues    EBANDS =      -386.64958795
  atomic energy  EATOM  =     13386.29214936
  Solvation  Ediel_sol  =         0.00000000
  ---------------------------------------------------
  free energy    TOTEN  =      -105.50795592 eV

  energy without entropy =     -105.49690863  energy(sigma->0) =     -105.50243227


--------------------------------------------------------------------------------------------------------




--------------------------------------- Iteration      1(  21)  ---------------------------------------


    POTLOK:  cpu time    0.1630: real time    0.1646
    SETDIJ:  cpu time    0.0140: real time    0.0143
    EDDIAG:  cpu time    2.3576: real time    2.3639
  RMM-DIIS:  cpu time    8.4057: real time    8.4244
    ORTHCH:  cpu time    0.4989: real time    0.4996
       DOS:  cpu time    0.0010: real time    0.0010
    CHARGE:  cpu time    0.6879: real time    0.6900
    MIXING:  cpu time    0.0100: real time    0.0091
    --------------------------------------------
      LOOP:  cpu time   12.1382: real time   12.1669

 eigenvalue-minimisations  :  2276
 total energy-change (2. order) :-0.2777771E-02  (-0.5401901E-04)
 number of electron     183.9999753 magnetization 
 augmentation part       62.6587887 magnetization 

 DIPCOR: dipole corrections for dipol
 direction  3 min pos   104,
 dipolmoment           0.000000      0.000000      0.095586 electrons x Angstroem
 Tr[quadrupol]     -2024.560246

 energy correction for charged system         0.000000 eV
 dipol+quadrupol energy correction           -0.000778 eV
 added-field ion interaction         -0.978916 eV  (added to PSCEN)


 Broyden mixing:
  rms(total) = 0.51805E-01    rms(broyden)= 0.51805E-01
  rms(prec ) = 0.93410E-01
  weight for this iteration     100.00

 eigenvalues of (default mixing * dielectric matrix)
  average eigenvalue GAMMA=   5.6079
 20.8591 20.8591  9.2897  7.9421  6.0446  3.7684  2.1094  1.3023  1.3023  1.1075
  1.0763  0.9969  0.9265  0.9265

 Free energy of the ion-electron system (eV)
  ---------------------------------------------------
  alpha Z        PSCENC =       177.94754806
  Ewald energy   TEWEN  =      8807.69689948
  -Hartree energ DENC   =    -22621.89210878
  -exchange      EXHF   =         0.00000000
  -V(xc)+E(xc)   XCENC  =      -920.36076252
  PAW double counting   =     16628.68897436   -15177.45394984
  entropy T*S    EENTRO =        -0.01103035
  eigenvalues    EBANDS =      -386.41845345
  atomic energy  EATOM  =     13386.29214936
  Solvation  Ediel_sol  =         0.00000000
  ---------------------------------------------------
  free energy    TOTEN  =      -105.51073369 eV

  energy without entropy =     -105.49970334  energy(sigma->0) =     -105.50521852


--------------------------------------------------------------------------------------------------------




--------------------------------------- Iteration      1(  22)  ---------------------------------------


    POTLOK:  cpu time    0.1640: real time    0.1649
    SETDIJ:  cpu time    0.0140: real time    0.0145
    EDDIAG:  cpu time    2.3596: real time    2.3659
  RMM-DIIS:  cpu time    7.9788: real time    7.9969
    ORTHCH:  cpu time    0.4919: real time    0.4928
       DOS:  cpu time    0.0010: real time    0.0010
    CHARGE:  cpu time    0.6849: real time    0.6856
    MIXING:  cpu time    0.0090: real time    0.0095
    --------------------------------------------
      LOOP:  cpu time   11.7032: real time   11.7311

 eigenvalue-minimisations  :  2165
 total energy-change (2. order) :-0.1282830E-01  (-0.4583319E-02)
 number of electron     183.9999753 magnetization 
 augmentation part       62.6906734 magnetization 

 DIPCOR: dipole corrections for dipol
 direction  3 min pos   108,
 dipolmoment           0.000000      0.000000     -0.078062 electrons x Angstroem
 Tr[quadrupol]     -2025.079269

 energy correction for charged system         0.000000 eV
 dipol+quadrupol energy correction           -0.000519 eV
 added-field ion interaction         -0.114939 eV  (added to PSCEN)


 Broyden mixing:
  rms(total) = 0.58625E-01    rms(broyden)= 0.58619E-01
  rms(prec ) = 0.12596E+00
  weight for this iteration     100.00

 eigenvalues of (default mixing * dielectric matrix)
  average eigenvalue GAMMA=   5.5241
 21.3441 21.3441  9.3539  9.3539  5.8995  4.5090  1.7818  1.7818  1.2794  1.2794
  1.0252  1.0252  0.9948  0.9948  0.8946

 Free energy of the ion-electron system (eV)
  ---------------------------------------------------
  alpha Z        PSCENC =       178.81178438
  Ewald energy   TEWEN  =      8807.69689948
  -Hartree energ DENC   =    -22629.97045716
  -exchange      EXHF   =         0.00000000
  -V(xc)+E(xc)   XCENC  =      -920.31116138
  PAW double counting   =     16625.23505939   -15173.90680720
  entropy T*S    EENTRO =        -0.01046663
  eigenvalues    EBANDS =      -379.36056222
  atomic energy  EATOM  =     13386.29214936
  Solvation  Ediel_sol  =         0.00000000
  ---------------------------------------------------
  free energy    TOTEN  =      -105.52356199 eV

  energy without entropy =     -105.51309536  energy(sigma->0) =     -105.51832867


--------------------------------------------------------------------------------------------------------




--------------------------------------- Iteration      1(  23)  ---------------------------------------


    POTLOK:  cpu time    0.1640: real time    0.1644
    SETDIJ:  cpu time    0.0140: real time    0.0144
    EDDIAG:  cpu time    2.3636: real time    2.3697
  RMM-DIIS:  cpu time    8.1678: real time    8.1858
    ORTHCH:  cpu time    0.4909: real time    0.4925
       DOS:  cpu time    0.0010: real time    0.0010
    CHARGE:  cpu time    0.6839: real time    0.6854
    MIXING:  cpu time    0.0100: real time    0.0101
    --------------------------------------------
      LOOP:  cpu time   11.8952: real time   11.9232

 eigenvalue-minimisations  :  2168
 total energy-change (2. order) : 0.7329186E-02  (-0.1952358E-03)
 number of electron     183.9999753 magnetization 
 augmentation part       62.6886500 magnetization 

 DIPCOR: dipole corrections for dipol
 direction  3 min pos   106,
 dipolmoment           0.000000      0.000000     -0.041445 electrons x Angstroem
 Tr[quadrupol]     -2025.215394

 energy correction for charged system         0.000000 eV
 dipol+quadrupol energy correction           -0.000146 eV
 added-field ion interaction          0.181711 eV  (added to PSCEN)


 Broyden mixing:
  rms(total) = 0.46400E-01    rms(broyden)= 0.46400E-01
  rms(prec ) = 0.10142E+00
  weight for this iteration     100.00

 eigenvalues of (default mixing * dielectric matrix)
  average eigenvalue GAMMA=   5.9663
 28.3429 21.7234 10.7334 10.7334  6.1695  4.4333  2.4678  2.4678  1.3002  1.3002
  1.0446  1.0446  1.0063  0.9536  0.9363  0.8031

 Free energy of the ion-electron system (eV)
  ---------------------------------------------------
  alpha Z        PSCENC =       179.10880710
  Ewald energy   TEWEN  =      8807.69689948
  -Hartree energ DENC   =    -22631.90710454
  -exchange      EXHF   =         0.00000000
  -V(xc)+E(xc)   XCENC  =      -920.28957146
  PAW double counting   =     16638.97427676   -15187.57348089
  entropy T*S    EENTRO =        -0.01038987
  eigenvalues    EBANDS =      -377.80781873
  atomic energy  EATOM  =     13386.29214936
  Solvation  Ediel_sol  =         0.00000000
  ---------------------------------------------------
  free energy    TOTEN  =      -105.51623280 eV

  energy without entropy =     -105.50584293  energy(sigma->0) =     -105.51103787


--------------------------------------------------------------------------------------------------------




--------------------------------------- Iteration      1(  24)  ---------------------------------------


    POTLOK:  cpu time    0.1650: real time    0.1671
    SETDIJ:  cpu time    0.0140: real time    0.0143
    EDDIAG:  cpu time    2.3466: real time    2.3530
  RMM-DIIS:  cpu time    8.1768: real time    8.1955
    ORTHCH:  cpu time    0.4979: real time    0.4988
       DOS:  cpu time    0.0010: real time    0.0010
    CHARGE:  cpu time    0.6819: real time    0.6833
    MIXING:  cpu time    0.0110: real time    0.0106
    --------------------------------------------
      LOOP:  cpu time   11.8942: real time   11.9235

 eigenvalue-minimisations  :  2170
 total energy-change (2. order) :-0.1918457E-02  (-0.1517062E-03)
 number of electron     183.9999753 magnetization 
 augmentation part       62.6872135 magnetization 

 DIPCOR: dipole corrections for dipol
 direction  3 min pos   109,
 dipolmoment           0.000000      0.000000     -0.072402 electrons x Angstroem
 Tr[quadrupol]     -2025.409960

 energy correction for charged system         0.000000 eV
 dipol+quadrupol energy correction           -0.000446 eV
 added-field ion interaction         -0.318629 eV  (added to PSCEN)


 Broyden mixing:
  rms(total) = 0.45460E-01    rms(broyden)= 0.45460E-01
  rms(prec ) = 0.99561E-01
  weight for this iteration     100.00

 eigenvalues of (default mixing * dielectric matrix)
  average eigenvalue GAMMA=   5.9257
 32.4564 21.1380 10.7004 10.7004  6.7315  4.0472  2.7984  2.7984  1.3032  1.3032
  1.1002  1.0140  1.0140  0.9664  0.8876  0.8890  0.8890

 Free energy of the ion-electron system (eV)
  ---------------------------------------------------
  alpha Z        PSCENC =       178.60816740
  Ewald energy   TEWEN  =      8807.69689948
  -Hartree energ DENC   =    -22635.48287164
[...]
  RMM-DIIS:  cpu time    4.8013: real time    4.8142
    ORTHCH:  cpu time    0.4889: real time    0.4900
       DOS:  cpu time    0.0010: real time    0.0010
    CHARGE:  cpu time    0.6979: real time    0.6994
    MIXING:  cpu time    0.0060: real time    0.0054
    --------------------------------------------
      LOOP:  cpu time    8.5527: real time    8.5768

 eigenvalue-minimisations  :  1215
 total energy-change (2. order) : 0.8223742E-05  (-0.3875249E-06)
 number of electron     183.9999807 magnetization 
 augmentation part       62.5817791 magnetization 

 DIPCOR: dipole corrections for dipol
 direction  3 min pos   107,
 dipolmoment           0.000000      0.000000     -0.015251 electrons x Angstroem
 Tr[quadrupol]     -2039.887587

 energy correction for charged system         0.000000 eV
 dipol+quadrupol energy correction           -0.000020 eV
 added-field ion interaction          0.006723 eV  (added to PSCEN)


 eigenvalues of (default mixing * dielectric matrix)
  average eigenvalue GAMMA=   3.7240
  8.6280  0.9502  1.5939

  free energy =  -0.105914958534E+03  energy without entropy=  -0.105905229232E+03


--------------------------------------------------------------------------------------------------------




--------------------------------------- Iteration     11(   5)  ---------------------------------------


    POTLOK:  cpu time    0.1690: real time    0.1705
    SETDIJ:  cpu time    0.0140: real time    0.0144
    EDDIAG:  cpu time    2.3726: real time    2.3802
  RMM-DIIS:  cpu time    5.1822: real time    5.1954
    ORTHCH:  cpu time    0.4899: real time    0.4909
       DOS:  cpu time    0.0010: real time    0.0010
    CHARGE:  cpu time    0.6969: real time    0.6983
    MIXING:  cpu time    0.0050: real time    0.0055
    --------------------------------------------
      LOOP:  cpu time    8.9306: real time    8.9562

 eigenvalue-minimisations  :  1408
 total energy-change (2. order) : 0.1451512E-04  (-0.2903150E-05)
 number of electron     183.9999807 magnetization 
 augmentation part       62.5821859 magnetization 

 DIPCOR: dipole corrections for dipol
 direction  3 min pos   107,
 dipolmoment           0.000000      0.000000     -0.015188 electrons x Angstroem
 Tr[quadrupol]     -2039.885084

 energy correction for charged system         0.000000 eV
 dipol+quadrupol energy correction           -0.000020 eV
 added-field ion interaction          0.006695 eV  (added to PSCEN)


 eigenvalues of (default mixing * dielectric matrix)
  average eigenvalue GAMMA=   4.1637
 10.1842  3.8736  1.0008  1.5964

  free energy =  -0.105914944018E+03  energy without entropy=  -0.105905177037E+03


--------------------------------------------------------------------------------------------------------




--------------------------------------- Iteration     11(   6)  ---------------------------------------


    POTLOK:  cpu time    0.1690: real time    0.1692
    SETDIJ:  cpu time    0.0140: real time    0.0145
    EDDIAG:  cpu time    2.3826: real time    2.3897
  RMM-DIIS:  cpu time    4.4643: real time    4.4759
    ORTHCH:  cpu time    0.4909: real time    0.4927
       DOS:  cpu time    0.0010: real time    0.0010
    --------------------------------------------
      LOOP:  cpu time    7.5219: real time    7.5428

 eigenvalue-minimisations  :  1174
 total energy-change (2. order) : 0.2241686E-05  (-0.1040857E-05)
 number of electron     183.9999807 magnetization 
 augmentation part       62.5821859 magnetization 

 DIPCOR: dipole corrections for dipol
 direction  3 min pos   107,
 dipolmoment           0.000000      0.000000     -0.015104 electrons x Angstroem
 Tr[quadrupol]     -2039.883722

 energy correction for charged system         0.000000 eV
 dipol+quadrupol energy correction           -0.000019 eV
 added-field ion interaction          0.006658 eV  (added to PSCEN)


  free energy =  -0.105914941777E+03  energy without entropy=  -0.105905181041E+03


--------------------------------------------------------------------------------------------------------




------------------------ aborting loop because EDIFF is reached ----------------------------------------


    CHARGE:  cpu time    0.6999: real time    0.7010
    FORLOC:  cpu time    0.0250: real time    0.0249
    FORNL :  cpu time    2.8516: real time    2.8590
    STRESS:  cpu time    8.5577: real time    8.5803
    FORCOR:  cpu time    0.1810: real time    0.1812
    FORHAR:  cpu time    0.0570: real time    0.0569
    MIXING:  cpu time    0.0060: real time    0.0055
    OFIELD:  cpu time    0.0000: real time    0.0000

  FORCE on cell =-STRESS in cart. coord.  units (eV):
  Direction    XX          YY          ZZ          XY          YZ          ZX
  --------------------------------------------------------------------------------------
  Alpha Z   178.92724   178.92724   178.92724
  Ewald   17288.58102 17283.45425-25129.47979     0.00000    48.54702     0.00000
  Hartree 20985.88541 20829.72325-18546.55645     0.00000    55.83860     0.00000
  E(xc)    -941.58087  -941.61139  -941.24874     0.00000    -0.47140    -0.00000
  Local  -41086.82716-40916.20969 40843.67205    -0.00000  -103.11809    -0.00000
  n-local   116.86076   129.45787    86.39523     0.32628     1.42166    -0.11886
  augment  1127.64675  1119.59669  1144.71858     0.00000    -0.97761    -0.00000
  Kinetic  2321.57473  2301.15312  2359.14006    -0.54976    -1.79705     0.26246
  Fock        0.00000     0.00000     0.00000     0.00000     0.00000     0.00000
  -------------------------------------------------------------------------------------
  Total      -8.93211   -15.50867    -4.43182     0.00000    -0.55687     0.00000
  in kB     -13.45360   -23.35925    -6.67523     0.00000    -0.83877     0.00000
  external pressure =      -14.50 kB  Pullay stress =        0.00 kB



--------------------------------------------------------------------------------------------------------



  FREE ENERGIE OF THE ION-ELECTRON SYSTEM (eV)
  ---------------------------------------------------
  free  energy   TOTEN  =      -105.91494178 eV

  energy  without entropy=     -105.90518104  energy(sigma->0) =     -105.91006141
 
 d Force = 0.8864033E-03[ 0.768E-03, 0.100E-02]  d Energy = 0.9030741E-03-0.167E-04
 d Force =-0.1954436E+01[-0.195E+01,-0.196E+01]  d Ewald  =-0.1954436E+01-0.608E-07


--------------------------------------------------------------------------------------------------------


    POTLOK:  cpu time    0.1820: real time    0.1833


--------------------------------------------------------------------------------------------------------


 Quasi-Newton relaxation of ions (Broydens 2nd method)
  g(Force)  = 0.103E-03   g(Stress)= 0.000E+00

 retain information from N=  2 steps
 eigenvalues of (default step * inverse Hessian matrix)
  average eigenvalue of G=  25.1381
 eigenvalue spectrum of G is 11.5970 38.6793


--------------------------------------------------------------------------------------------------------


    WAVPRE:  cpu time    0.0490: real time    0.0503
    FEWALD:  cpu time    0.0010: real time    0.0011
    ORTHCH:  cpu time    1.3928: real time    1.3964
     LOOP+:  cpu time   80.0468: real time   80.2668


--------------------------------------- Iteration     12(   1)  ---------------------------------------


    POTLOK:  cpu time    0.1780: real time    0.1788
    SETDIJ:  cpu time    0.0140: real time    0.0144
     EDDAV:  cpu time   13.2810: real time   13.3165
       DOS:  cpu time    0.0010: real time    0.0009
    CHARGE:  cpu time    0.7009: real time    0.7027
    MIXING:  cpu time    0.0050: real time    0.0045
    --------------------------------------------
      LOOP:  cpu time   14.1798: real time   14.2178

 eigenvalue-minimisations  :  2160
 total energy-change (2. order) : 0.3052738E-03  (-0.8741358E-01)
 number of electron     183.9999803 magnetization 
 augmentation part       62.5803780 magnetization 

 DIPCOR: dipole corrections for dipol
 direction  3 min pos   107,
 dipolmoment           0.000000      0.000000     -0.015078 electrons x Angstroem
 Tr[quadrupol]     -2040.059153

 energy correction for charged system         0.000000 eV
 dipol+quadrupol energy correction           -0.000019 eV
 added-field ion interaction          0.006423 eV  (added to PSCEN)


  free energy =  -0.105914638745E+03  energy without entropy=  -0.105905049841E+03


--------------------------------------------------------------------------------------------------------




--------------------------------------- Iteration     12(   2)  ---------------------------------------


    POTLOK:  cpu time    0.1710: real time    0.1715
    SETDIJ:  cpu time    0.0140: real time    0.0144
    EDDIAG:  cpu time    2.3716: real time    2.3786
  RMM-DIIS:  cpu time    8.2008: real time    8.2224
    ORTHCH:  cpu time    0.4969: real time    0.4979
       DOS:  cpu time    0.0010: real time    0.0010
    CHARGE:  cpu time    0.6949: real time    0.6966
    MIXING:  cpu time    0.0050: real time    0.0051
    --------------------------------------------
      LOOP:  cpu time   11.9552: real time   11.9876

 eigenvalue-minimisations  :  2176
 total energy-change (2. order) :-0.1064515E-02  (-0.1094326E-02)
 number of electron     183.9999803 magnetization 
 augmentation part       62.5806159 magnetization 

 DIPCOR: dipole corrections for dipol
 direction  3 min pos   107,
 dipolmoment           0.000000      0.000000     -0.015148 electrons x Angstroem
 Tr[quadrupol]     -2040.058676

 energy correction for charged system         0.000000 eV
 dipol+quadrupol energy correction           -0.000020 eV
 added-field ion interaction          0.006452 eV  (added to PSCEN)


 eigenvalues of (default mixing * dielectric matrix)
  average eigenvalue GAMMA=   1.2906
  1.2906

  free energy =  -0.105915703260E+03  energy without entropy=  -0.105906094365E+03


--------------------------------------------------------------------------------------------------------




--------------------------------------- Iteration     12(   3)  ---------------------------------------


    POTLOK:  cpu time    0.1680: real time    0.1698
    SETDIJ:  cpu time    0.0150: real time    0.0145
    EDDIAG:  cpu time    2.3736: real time    2.3807
  RMM-DIIS:  cpu time   11.2563: real time   11.2859
    ORTHCH:  cpu time    0.4889: real time    0.4898
       DOS:  cpu time    0.0010: real time    0.0010
    CHARGE:  cpu time    0.6949: real time    0.6969
    MIXING:  cpu time    0.0050: real time    0.0051
    --------------------------------------------
      LOOP:  cpu time   15.0027: real time   15.0438

 eigenvalue-minimisations  :  2984
 total energy-change (2. order) :-0.7750189E-04  (-0.8686056E-04)
 number of electron     183.9999803 magnetization 
 augmentation part       62.5807100 magnetization 

 DIPCOR: dipole corrections for dipol
 direction  3 min pos   107,
 dipolmoment           0.000000      0.000000     -0.015167 electrons x Angstroem
 Tr[quadrupol]     -2040.058223

 energy correction for charged system         0.000000 eV
 dipol+quadrupol energy correction           -0.000020 eV
 added-field ion interaction          0.006461 eV  (added to PSCEN)


 eigenvalues of (default mixing * dielectric matrix)
  average eigenvalue GAMMA=   1.5689
  1.5689  1.5689

  free energy =  -0.105915780762E+03  energy without entropy=  -0.105906157895E+03


--------------------------------------------------------------------------------------------------------




--------------------------------------- Iteration     12(   4)  ---------------------------------------


    POTLOK:  cpu time    0.1690: real time    0.1699
    SETDIJ:  cpu time    0.0140: real time    0.0144
    EDDIAG:  cpu time    2.3816: real time    2.3887
  RMM-DIIS:  cpu time    5.1322: real time    5.1461
    ORTHCH:  cpu time    0.4929: real time    0.4934
       DOS:  cpu time    0.0010: real time    0.0010
    CHARGE:  cpu time    0.6949: real time    0.6973
    MIXING:  cpu time    0.0060: real time    0.0053
    --------------------------------------------
      LOOP:  cpu time    8.8916: real time    8.9161

 eigenvalue-minimisations  :  1322
 total energy-change (2. order) : 0.1722052E-04  (-0.7103967E-06)
 number of electron     183.9999803 magnetization 
 augmentation part       62.5808559 magnetization 

 DIPCOR: dipole corrections for dipol
 direction  3 min pos   107,
 dipolmoment           0.000000      0.000000     -0.015145 electrons x Angstroem
 Tr[quadrupol]     -2040.057524

 energy correction for charged system         0.000000 eV
 dipol+quadrupol energy correction           -0.000020 eV
 added-field ion interaction          0.006451 eV  (added to PSCEN)


 eigenvalues of (default mixing * dielectric matrix)
  average eigenvalue GAMMA=   3.8225
  8.9602  0.9534  1.5540

  free energy =  -0.105915763541E+03  energy without entropy=  -0.105906123705E+03


--------------------------------------------------------------------------------------------------------




--------------------------------------- Iteration     12(   5)  ---------------------------------------


    POTLOK:  cpu time    0.1680: real time    0.1693
    SETDIJ:  cpu time    0.0150: real time    0.0142
    EDDIAG:  cpu time    2.3696: real time    2.3768
  RMM-DIIS:  cpu time    6.9299: real time    6.9805
    ORTHCH:  cpu time    0.4969: real time    0.4983
       DOS:  cpu time    0.0010: real time    0.0010
    CHARGE:  cpu time    0.6969: real time    0.6981
    MIXING:  cpu time    0.0050: real time    0.0053
    --------------------------------------------
      LOOP:  cpu time   10.6824: real time   10.7435

 eigenvalue-minimisations  :  1900
 total energy-change (2. order) : 0.2842208E-04  (-0.5480597E-05)
 number of electron     183.9999803 magnetization 
 augmentation part       62.5813246 magnetization 

 DIPCOR: dipole corrections for dipol
 direction  3 min pos   107,
 dipolmoment           0.000000      0.000000     -0.015065 electrons x Angstroem
 Tr[quadrupol]     -2040.055433

 energy correction for charged system         0.000000 eV
 dipol+quadrupol energy correction           -0.000019 eV
 added-field ion interaction          0.006417 eV  (added to PSCEN)


 eigenvalues of (default mixing * dielectric matrix)
  average eigenvalue GAMMA=   4.0243
 10.0855  3.4390  1.0059  1.5668

  free energy =  -0.105915735119E+03  energy without entropy=  -0.105906048881E+03


--------------------------------------------------------------------------------------------------------




--------------------------------------- Iteration     12(   6)  ---------------------------------------


    POTLOK:  cpu time    0.1770: real time    0.1773
    SETDIJ:  cpu time    0.0140: real time    0.0143
    EDDIAG:  cpu time    2.3736: real time    2.3800
  RMM-DIIS:  cpu time    4.5413: real time    4.5521
    ORTHCH:  cpu time    0.4889: real time    0.4901
       DOS:  cpu time    0.0010: real time    0.0010
    --------------------------------------------
      LOOP:  cpu time    7.5958: real time    7.6148

 eigenvalue-minimisations  :  1182
 total energy-change (2. order) : 0.6178037E-05  (-0.1146407E-05)
 number of electron     183.9999803 magnetization 
 augmentation part       62.5813246 magnetization 

 DIPCOR: dipole corrections for dipol
 direction  3 min pos   107,
 dipolmoment           0.000000      0.000000     -0.014998 electrons x Angstroem
 Tr[quadrupol]     -2040.054765

 energy correction for charged system         0.000000 eV
 dipol+quadrupol energy correction           -0.000019 eV
 added-field ion interaction          0.006388 eV  (added to PSCEN)


  free energy =  -0.105915728941E+03  energy without entropy=  -0.105906053236E+03


--------------------------------------------------------------------------------------------------------




------------------------ aborting loop because EDIFF is reached ----------------------------------------


    CHARGE:  cpu time    0.6999: real time    0.7014
    FORLOC:  cpu time    0.0250: real time    0.0246
    FORNL :  cpu time    2.8576: real time    2.8644
    STRESS:  cpu time    8.5757: real time    8.5955
    FORCOR:  cpu time    0.1780: real time    0.1789
    FORHAR:  cpu time    0.0570: real time    0.0570
    MIXING:  cpu time    0.0060: real time    0.0056
    OFIELD:  cpu time    0.0000: real time    0.0000

  FORCE on cell =-STRESS in cart. coord.  units (eV):
  Direction    XX          YY          ZZ          XY          YZ          ZX
  --------------------------------------------------------------------------------------
  Alpha Z   178.92724   178.92724   178.92724
  Ewald   17291.50477 17282.77679-25129.83807     0.00000    48.95925     0.00000
  Hartree 20988.54475 20829.72975-18547.29458     0.00000    56.11732     0.00000
  E(xc)    -941.56983  -941.61497  -941.24132     0.00000    -0.47643    -0.00000
  Local  -41092.40076-40915.52345 40844.74986    -0.00000  -103.79944    -0.00000
  n-local   116.88641   129.48332    86.38102     0.33602     1.45054    -0.11554
  augment  1127.64330  1119.58800  1144.71689    -0.00000    -0.98239     0.00000
  Kinetic  2321.56265  2301.13550  2359.13449    -0.54757    -1.80022     0.26302
  Fock        0.00000     0.00000     0.00000     0.00000     0.00000     0.00000
  -------------------------------------------------------------------------------------
  Total      -8.90148   -15.49782    -4.46446     0.00000    -0.53136     0.00000
  in kB     -13.40746   -23.34290    -6.72440     0.00000    -0.80034     0.00000
  external pressure =      -14.49 kB  Pullay stress =        0.00 kB



--------------------------------------------------------------------------------------------------------



  FREE ENERGIE OF THE ION-ELECTRON SYSTEM (eV)
  ---------------------------------------------------
  free  energy   TOTEN  =      -105.91572894 eV

  energy  without entropy=     -105.90605324  energy(sigma->0) =     -105.91089109
 
 d Force = 0.8999063E-03[ 0.634E-03, 0.117E-02]  d Energy = 0.7871645E-03 0.113E-03
 d Force =-0.1888017E+01[-0.188E+01,-0.190E+01]  d Ewald  =-0.1888014E+01-0.308E-05


--------------------------------------------------------------------------------------------------------


    POTLOK:  cpu time    0.1820: real time    0.1827


--------------------------------------------------------------------------------------------------------


 Quasi-Newton relaxation of ions (Broydens 2nd method)
  g(Force)  = 0.532E-04   g(Stress)= 0.000E+00

 retain information from N=  2 steps
 eigenvalues of (default step * inverse Hessian matrix)
  average eigenvalue of G=  20.3325
 eigenvalue spectrum of G is 20.3325 20.3325


--------------------------------------------------------------------------------------------------------


  
 reached required accuracy - stopping structural energy minimisation
     LOOP+:  cpu time   80.9307: real time   81.1802
    4ORBIT:  cpu time    0.0000: real time    0.0000

 total amount of memory used by VASP MPI-rank0    93321. kBytes
=======================================================================

   base      :      30000. kBytes
   nonlr-proj:       9841. kBytes
   fftplans  :       4921. kBytes
   grid      :      14352. kBytes
   one-center:        373. kBytes
   wavefun   :      33834. kBytes
 
  
  
 General timing and accounting informations for this job:
 ========================================================
  
                  Total CPU time used (sec):     1694.241
                            User time (sec):     1690.184
                          System time (sec):        4.057
                         Elapsed time (sec):     1704.663
  
                   Maximum memory used (kb):      172628.
                   Average memory used (kb):           0.
  
                          Minor page faults:       455149
                          Major page faults:            0
                 Voluntary context switches:         9362
