   48   48  200    1
  0.3275121E+02  0.8392900E-09  0.1145020E-08  0.1635850E-08  0.1500000E-15
  1.000000000000000E-004
  CAR 
 alloy-surf                              
    368      7    408
 
  0.0000000E+00  0.0000000E+00  0.0000000E+00  0.8333333E-01
    1       -6.259615   1.000000
    2       -5.145582   1.000000
    3       -5.145228   1.000000
    4       -5.029652   1.000000
    5       -4.645910   1.000000
    6       -4.220491   1.000000
    7       -4.165547   1.000000
    8       -4.164354   1.000000
    9       -4.067195   1.000000
   10       -3.857699   1.000000
   11       -3.674553   1.000000
   12       -3.673007   1.000000
   13       -3.468789   1.000000
   14       -3.383822   1.000000
   15       -3.383263   1.000000
   16       -3.187362   1.000000
   17       -2.492616   1.000000
   18       -2.492544   1.000000
   19       -2.288543   1.000000
   20       -2.103611   1.000000
   21       -2.018217   1.000000
   22       -2.017133   1.000000
   23       -1.916418   1.000000
   24       -1.916119   1.000000
   25       -1.841738   1.000000
   26       -1.788297   1.000000
   27       -1.779748   1.000000
   28       -1.717811   1.000000
   29       -1.622617   1.000000
   30       -1.622119   1.000000
   31       -1.567128   1.000000
   32       -1.566214   1.000000
   33       -1.505457   1.000000
   34       -1.487552   1.000000
   35       -1.460104   1.000000
   36       -1.458738   1.000000
   37       -1.398102   1.000000
   38       -1.395916   1.000000
   39       -1.247783   1.000000
   40       -1.246699   1.000000
   41       -1.180491   1.000000
   42       -1.159129   1.000000
   43       -1.158484   1.000000
   44       -1.110962   1.000000
   45       -1.105788   1.000000
   46       -1.104924   1.000000
   47       -1.094341   1.000000
   48       -1.085631   1.000000
   49       -1.076138   1.000000
   50       -1.075611   1.000000
   51       -1.063217   1.000000
   52       -1.027901   1.000000
   53       -1.004653   1.000000
   54       -0.987262   1.000000
   55       -0.986609   1.000000
   56       -0.953643   1.000000
   57       -0.946887   1.000000
   58       -0.939189   1.000000
   59       -0.930451   1.000000
   60       -0.838580   1.000000
   61       -0.837413   1.000000
   62       -0.799223   1.000000
   63       -0.798148   1.000000
   64       -0.775297   1.000000
   65       -0.753278   1.000000
   66       -0.752176   1.000000
   67       -0.725478   1.000000
   68       -0.724432   1.000000
   69       -0.684663   1.000000
   70       -0.680920   1.000000
   71       -0.679726   1.000000
   72       -0.620102   1.000000
   73       -0.562363   1.000000
   74       -0.559695   1.000000
   75       -0.548946   1.000000
   76       -0.548244   1.000000
   77       -0.507451   1.000000
   78       -0.463251   1.000000
   79       -0.428637   1.000000
   80       -0.409387   1.000000
   81       -0.376432   1.000000
   82       -0.375787   1.000000
   83       -0.330563   1.000000
   84       -0.329343   1.000000
   85       -0.293296   1.000000
   86       -0.267558   1.000000
   87       -0.266417   1.000000
   88       -0.255373   1.000000
   89       -0.239271   1.000000
   90       -0.191908   1.000000
   91       -0.190862   1.000000
   92       -0.149506   1.000000
   93       -0.136724   1.000000
   94       -0.136476   1.000000
   95       -0.133662   1.000000
   96       -0.082755   1.000000
   97       -0.054917   1.000000
   98       -0.013387   1.000000
   99       -0.012141   1.000000
  100        0.000702   1.000000
  101        0.044022   1.000000
  102        0.051794   1.000000
  103        0.054836   1.000000
  104        0.055997   1.000000
  105        0.067087   1.000000
  106        0.096844   1.000000
  107        0.113721   1.000000
  108        0.147351   1.000000
  109        0.183478   1.000000
  110        0.210466   1.000000
  111        0.239014   1.000000
  112        0.240835   1.000000
  113        0.298941   1.000000
  114        0.305088   1.000000
  115        0.305719   1.000000
  116        0.319102   1.000000
  117        0.347916   1.000000
  118        0.349598   1.000000
  119        0.354277   1.000000
  120        0.420930   1.000000
  121        0.435579   1.000000
  122        0.450020   1.000000
  123        0.451212   1.000000
  124        0.452362   1.000000
  125        0.462810   1.000000
  126        0.497042   1.000000
  127        0.497808   1.000000
  128        0.500758   1.000000
  129        0.555917   1.000000
  130        0.557398   1.000000
  131        0.558010   1.000000
  132        0.575937   1.000000
  133        0.577055   1.000000
  134        0.623417   1.000000
  135        0.624811   1.000000
  136        0.625684   1.000000
  137        0.654321   1.000000
  138        0.655011   1.000000
  139        0.672267   1.000000
  140        0.674247   1.000000
  141        0.703653   1.000000
  142        0.703661   1.000000
  143        0.717342   1.000000
  144        0.732614   1.000000
  145        0.765239   1.000000
  146        0.821164   1.000000
  147        0.821415   1.000000
  148        0.828934   1.000000
  149        0.833012   1.000000
  150        0.864033   1.000000
  151        0.864889   1.000000
  152        0.899607   1.000000
  153        0.939718   1.000000
  154        0.966509   1.000000
  155        0.966904   1.000000
  156        0.967639   1.000000
  157        1.018901   1.000000
  158        1.020748   1.000000
  159        1.022895   1.000000
  160        1.042184   1.000000
  161        1.064454   1.000000
  162        1.066003   1.000000
  163        1.092399   1.000000
  164        1.143324   1.000000
  165        1.179466   1.000000
  166        1.180175   1.000000
  167        1.232263   1.000000
  168        1.253573   1.000000
  169        1.254957   1.000000
  170        1.256764   1.000000
  171        1.304915   1.000000
  172        1.344028   1.000000
  173        1.395114   1.000000
  174        1.396816   1.000000
  175        1.397119   1.000000
  176        1.447427   1.000000
  177        1.450526   1.000000
  178        1.484089   1.000000
  179        1.585903   1.000000
  180        1.869215   1.000000
  181        1.870888   1.000000
  182        1.934115   1.000000
  183        2.033856   1.000000
  184        2.035718   1.000000
  185        2.037267   1.000000
  186        2.149959   1.000000
  187        2.264491   0.936104
  188        2.460235   0.000000
  189        2.500328   0.000000
  190        2.698852   0.000000
  191        2.905545   0.000000
  192        2.906595   0.000000
  193        3.110281   0.000000
  194        3.111708   0.000000
  195        3.293109   0.000000
  196        3.317947   0.000000
  197        3.527843   0.000000
  198        3.530330   0.000000
  199        3.799000   0.000000
  200        4.036490   0.000000
  201        4.175127   0.000000
  202        4.193194   0.000000
  203        4.210408   0.000000
  204        4.507230   0.000000
  205        4.508154   0.000000
  206        4.518247   0.000000
  207        4.823016   0.000000
  208        4.851530   0.000000
  209        4.974428   0.000000
  210        4.976759   0.000000
  211        5.405751   0.000000
  212        5.586599   0.000000
  213        5.588084   0.000000
  214        5.750690   0.000000
  215        5.905574   0.000000
  216        5.932261   0.000000
  217        6.087845   0.000000
  218        6.194847   0.000000
  219        6.363616   0.000000
  220        6.420552   0.000000
  221        6.422382   0.000000
  222        6.454094   0.000000
  223        6.456494   0.000000
  224        6.895291   0.000000
  225        6.898239   0.000000
  226        6.997067   0.000000
  227        7.080093   0.000000
  228        7.236817   0.000000
  229        7.238492   0.000000
  230        7.278590   0.000000
  231        7.524940   0.000000
  232        7.525830   0.000000
  233        7.590343   0.000000
  234        7.643016   0.000000
  235        7.644552   0.000000
  236        7.726696   0.000000
  237        7.745822   0.000000
  238        7.748062   0.000000
  239        7.811327   0.000000
  240        7.899814   0.000000
  241        7.902764   0.000000
  242        7.987090   0.000000
  243        7.994699   0.000000
  244        8.118484   0.000000
  245        8.119610   0.000000
  246        8.214800   0.000000
  247        8.372432   0.000000
  248        8.372826   0.000000
  249        8.572923   0.000000
  250        8.595526   0.000000
  251        8.670481   0.000000
  252        8.919936   0.000000
  253        8.922598   0.000000
  254        8.923540   0.000000
  255        9.152107   0.000000
  256        9.152477   0.000000
  257        9.204986   0.000000
  258        9.235646   0.000000
  259        9.285093   0.000000
  260        9.314032   0.000000
  261        9.316998   0.000000
  262        9.480354   0.000000
  263        9.635895   0.000000
  264        9.637901   0.000000
  265        9.645949   0.000000
  266        9.647797   0.000000
  267        9.693728   0.000000
  268        9.694612   0.000000
  269        9.862694   0.000000
  270        9.865627   0.000000
  271        9.920691   0.000000
  272        9.922287   0.000000
  273       10.083781   0.000000
  274       10.085515   0.000000
  275       10.197924   0.000000
  276       10.247415   0.000000
  277       10.477331   0.000000
  278       10.522218   0.000000
  279       10.528305   0.000000
  280       10.571813   0.000000
  281       10.575447   0.000000
  282       10.733542   0.000000
  283       10.737974   0.000000
  284       10.827016   0.000000
  285       11.023151   0.000000
  286       11.067274   0.000000
  287       11.088539   0.000000
  288       11.089636   0.000000
  289       11.187637   0.000000
  290       11.226031   0.000000
  291       11.227675   0.000000
  292       11.323461   0.000000
  293       11.334170   0.000000
  294       11.377140   0.000000
  295       11.377551   0.000000
  296       11.437211   0.000000
  297       11.439248   0.000000
  298       11.448615   0.000000
  299       11.607404   0.000000
  300       11.778621   0.000000
  301       11.828106   0.000000
  302       11.829241   0.000000
  303       11.971892   0.000000
  304       11.993103   0.000000
  305       11.994180   0.000000
  306       11.995160   0.000000
  307       12.080686   0.000000
  308       12.084000   0.000000
  309       12.119309   0.000000
  310       12.142571   0.000000
  311       12.330719   0.000000
  312       12.453856   0.000000
  313       12.457629   0.000000
  314       12.481476   0.000000
  315       12.524081   0.000000
  316       12.561005   0.000000
  317       12.651993   0.000000
  318       12.653220   0.000000
  319       12.686710   0.000000
  320       12.715423   0.000000
  321       12.757973   0.000000
  322       12.894142   0.000000
  323       12.900450   0.000000
  324       12.929544   0.000000
  325       12.930872   0.000000
  326       13.018887   0.000000
  327       13.137973   0.000000
  328       13.169078   0.000000
  329       13.170782   0.000000
  330       13.237893   0.000000
  331       13.295587   0.000000
  332       13.305371   0.000000
  333       13.307197   0.000000
  334       13.351343   0.000000
  335       13.556434   0.000000
  336       13.556941   0.000000
  337       13.573003   0.000000
  338       13.587849   0.000000
  339       13.589566   0.000000
  340       13.650241   0.000000
  341       13.747612   0.000000
  342       13.770400   0.000000
  343       13.773900   0.000000
  344       13.999004   0.000000
  345       14.002378   0.000000
  346       14.100183   0.000000
  347       14.101777   0.000000
  348       14.223501   0.000000
  349       14.227167   0.000000
  350       14.307062   0.000000
  351       14.396627   0.000000
  352       14.492591   0.000000
  353       14.493384   0.000000
  354       14.494833   0.000000
  355       14.651522   0.000000
  356       14.730885   0.000000
  357       14.745324   0.000000
  358       14.748440   0.000000
  359       14.829907   0.000000
  360       14.919032   0.000000
  361       14.952467   0.000000
  362       14.954847   0.000000
  363       15.054138   0.000000
  364       15.105905   0.000000
  365       15.296721   0.000000
  366       15.317543   0.000000
  367       15.399907   0.000000
  368       15.503436   0.000000
  369       15.585133   0.000000
  370       15.587155   0.000000
  371       15.608810   0.000000
  372       15.610305   0.000000
  373       15.751118   0.000000
  374       15.753252   0.000000
  375       15.790356   0.000000
  376       15.810957   0.000000
  377       15.813149   0.000000
  378       15.846326   0.000000
  379       15.935719   0.000000
  380       15.938079   0.000000
  381       15.996169   0.000000
  382       16.040439   0.000000
  383       16.042789   0.000000
  384       16.082912   0.000000
  385       16.091616   0.000000
  386       16.094520   0.000000
  387       16.247739   0.000000
  388       16.262338   0.000000
  389       16.266233   0.000000
  390       16.313671   0.000000
  391       16.345626   0.000000
  392       16.350624   0.000000
  393       16.352923   0.000000
  394       16.417567   0.000000
  395       16.418207   0.000000
  396       16.551310   0.000000
  397       16.551876   0.000000
  398       16.567416   0.000000
  399       16.643127   0.000000
  400       16.654114   0.000000
  401       16.710072   0.000000
  402       16.712180   0.000000
  403       16.714716   0.000000
  404       16.857570   0.000000
  405       16.864196   0.000000
  406       16.924295   0.000000
  407       16.929795   0.000000
  408       16.941329   0.000000
 
  0.2500000E+00  0.0000000E+00  0.0000000E+00  0.1666667E+00
    1       -6.120107   1.000000
    2       -5.137204   1.000000
    3       -5.051018   1.000000
    4       -5.050290   1.000000
    5       -4.903262   1.000000
    6       -4.254737   1.000000
    7       -4.146023   1.000000
    8       -4.144468   1.000000
    9       -3.881545   1.000000
   10       -3.857771   1.000000
   11       -3.856830   1.000000
   12       -3.763283   1.000000
   13       -3.433007   1.000000
   14       -3.408889   1.000000
   15       -3.408351   1.000000
   16       -3.222724   1.000000
   17       -2.356752   1.000000
   18       -2.356351   1.000000
   19       -2.234613   1.000000
   20       -2.167775   1.000000
   21       -2.080395   1.000000
   22       -2.079359   1.000000
   23       -1.924954   1.000000
   24       -1.920120   1.000000
   25       -1.919529   1.000000
   26       -1.853143   1.000000
   27       -1.724974   1.000000
   28       -1.724664   1.000000
   29       -1.679371   1.000000
   30       -1.663528   1.000000
   31       -1.607091   1.000000
   32       -1.575018   1.000000
   33       -1.574044   1.000000
   34       -1.535522   1.000000
   35       -1.507858   1.000000
   36       -1.459226   1.000000
   37       -1.409929   1.000000
   38       -1.346322   1.000000
   39       -1.298833   1.000000
   40       -1.298294   1.000000
   41       -1.241920   1.000000
   42       -1.216654   1.000000
   43       -1.195040   1.000000
   44       -1.144387   1.000000
   45       -1.143644   1.000000
   46       -1.138507   1.000000
   47       -1.104859   1.000000
   48       -1.104011   1.000000
   49       -1.076024   1.000000
   50       -1.065169   1.000000
   51       -1.059525   1.000000
   52       -1.058268   1.000000
   53       -1.022740   1.000000
   54       -1.010027   1.000000
   55       -1.008796   1.000000
   56       -0.971578   1.000000
   57       -0.940125   1.000000
   58       -0.937511   1.000000
   59       -0.936251   1.000000
   60       -0.864733   1.000000
   61       -0.843464   1.000000
   62       -0.842857   1.000000
   63       -0.837885   1.000000
   64       -0.786901   1.000000
   65       -0.780478   1.000000
   66       -0.749630   1.000000
   67       -0.748700   1.000000
   68       -0.695977   1.000000
   69       -0.695537   1.000000
   70       -0.694583   1.000000
   71       -0.645898   1.000000
   72       -0.645329   1.000000
   73       -0.616230   1.000000
   74       -0.577395   1.000000
   75       -0.511188   1.000000
   76       -0.495612   1.000000
   77       -0.494610   1.000000
   78       -0.479380   1.000000
   79       -0.467315   1.000000
   80       -0.465581   1.000000
   81       -0.444334   1.000000
   82       -0.373571   1.000000
   83       -0.367596   1.000000
   84       -0.366952   1.000000
   85       -0.337092   1.000000
   86       -0.326510   1.000000
   87       -0.325932   1.000000
   88       -0.302661   1.000000
   89       -0.252302   1.000000
   90       -0.214164   1.000000
   91       -0.212926   1.000000
   92       -0.187281   1.000000
   93       -0.173139   1.000000
   94       -0.111049   1.000000
   95       -0.109774   1.000000
   96       -0.104003   1.000000
   97       -0.051220   1.000000
   98       -0.010194   1.000000
   99        0.010509   1.000000
  100        0.011100   1.000000
  101        0.031132   1.000000
  102        0.082762   1.000000
  103        0.129889   1.000000
  104        0.140767   1.000000
  105        0.149454   1.000000
  106        0.153301   1.000000
  107        0.153945   1.000000
  108        0.183551   1.000000
  109        0.231812   1.000000
  110        0.233473   1.000000
  111        0.259108   1.000000
  112        0.307081   1.000000
  113        0.310781   1.000000
  114        0.311971   1.000000
  115        0.336505   1.000000
  116        0.347016   1.000000
  117        0.352722   1.000000
  118        0.354062   1.000000
  119        0.380511   1.000000
  120        0.432698   1.000000
  121        0.434308   1.000000
  122        0.439468   1.000000
  123        0.465680   1.000000
  124        0.501132   1.000000
  125        0.501819   1.000000
  126        0.504576   1.000000
  127        0.536101   1.000000
  128        0.537017   1.000000
  129        0.550973   1.000000
  130        0.557572   1.000000
  131        0.562231   1.000000
  132        0.584114   1.000000
  133        0.584993   1.000000
  134        0.605436   1.000000
  135        0.612628   1.000000
  136        0.613681   1.000000
  137        0.651063   1.000000
  138        0.651385   1.000000
  139        0.679925   1.000000
  140        0.710882   1.000000
  141        0.711131   1.000000
  142        0.726169   1.000000
  143        0.758974   1.000000
  144        0.772295   1.000000
  145        0.773169   1.000000
  146        0.786504   1.000000
  147        0.805469   1.000000
  148        0.830305   1.000000
  149        0.849703   1.000000
  150        0.851422   1.000000
  151        0.868671   1.000000
  152        0.891141   1.000000
  153        0.962596   1.000000
  154        0.963535   1.000000
  155        0.982285   1.000000
  156        0.998381   1.000000
  157        1.019941   1.000000
  158        1.021660   1.000000
  159        1.045683   1.000000
  160        1.091383   1.000000
  161        1.092429   1.000000
  162        1.123377   1.000000
  163        1.146832   1.000000
  164        1.163193   1.000000
  165        1.173942   1.000000
  166        1.174444   1.000000
  167        1.224669   1.000000
  168        1.239446   1.000000
  169        1.286407   1.000000
  170        1.322921   1.000000
  171        1.335025   1.000000
  172        1.373877   1.000000
  173        1.375131   1.000000
  174        1.404121   1.000000
  175        1.545497   1.000000
  176        1.605957   1.000000
  177        1.685409   1.000000
  178        1.774991   1.000000
  179        1.776233   1.000000
  180        1.945032   1.000000
  181        1.947464   1.000000
  182        2.036416   1.000000
  183        2.152368   1.000000
  184        2.322513   0.112700
  185        2.324160   0.098530
  186        2.397740   0.000001
  187        2.448264   0.000000
  188        2.512137   0.000000
  189        2.732501   0.000000
  190        2.850281   0.000000
  191        2.892293   0.000000
  192        2.894589   0.000000
  193        3.061770   0.000000
  194        3.109482   0.000000
  195        3.243210   0.000000
  196        3.243520   0.000000
  197        3.493721   0.000000
  198        3.671685   0.000000
  199        3.803372   0.000000
  200        3.928870   0.000000
  201        3.930605   0.000000
  202        4.207698   0.000000
  203        4.218669   0.000000
  204        4.387055   0.000000
  205        4.388910   0.000000
  206        4.444127   0.000000
  207        4.605397   0.000000
  208        4.825747   0.000000
  209        4.828250   0.000000
  210        4.842764   0.000000
  211        5.190908   0.000000
  212        5.192531   0.000000
  213        5.233359   0.000000
  214        5.340992   0.000000
  215        5.705596   0.000000
  216        5.740632   0.000000
  217        5.795027   0.000000
  218        5.984378   0.000000
  219        5.986759   0.000000
  220        6.257483   0.000000
  221        6.258437   0.000000
  222        6.394452   0.000000
  223        6.513724   0.000000
  224        6.515458   0.000000
  225        6.521593   0.000000
  226        6.718776   0.000000
  227        6.918344   0.000000
  228        7.015507   0.000000
  229        7.279165   0.000000
  230        7.280903   0.000000
  231        7.283369   0.000000
  232        7.513946   0.000000
  233        7.584908   0.000000
  234        7.678267   0.000000
  235        7.694314   0.000000
  236        7.695218   0.000000
  237        7.695995   0.000000
  238        7.885712   0.000000
  239        7.899112   0.000000
  240        7.900416   0.000000
  241        8.065938   0.000000
  242        8.083989   0.000000
  243        8.084677   0.000000
  244        8.127749   0.000000
  245        8.266732   0.000000
  246        8.426952   0.000000
  247        8.427644   0.000000
  248        8.670643   0.000000
  249        8.672308   0.000000
  250        8.710594   0.000000
  251        8.746095   0.000000
  252        8.747527   0.000000
  253        8.969886   0.000000
  254        8.995074   0.000000
  255        8.995870   0.000000
  256        9.071021   0.000000
  257        9.071446   0.000000
  258        9.255557   0.000000
  259        9.305322   0.000000
  260        9.414256   0.000000
  261        9.416540   0.000000
  262        9.430108   0.000000
  263        9.550495   0.000000
  264        9.685256   0.000000
  265        9.728198   0.000000
  266        9.731860   0.000000
  267        9.782488   0.000000
  268        9.939350   0.000000
  269       10.011198   0.000000
  270       10.146913   0.000000
  271       10.161207   0.000000
  272       10.166518   0.000000
  273       10.170048   0.000000
  274       10.227806   0.000000
  275       10.286533   0.000000
  276       10.407492   0.000000
  277       10.415809   0.000000
  278       10.416806   0.000000
  279       10.538942   0.000000
  280       10.703146   0.000000
  281       10.704559   0.000000
  282       10.815317   0.000000
  283       10.935497   0.000000
  284       10.936936   0.000000
  285       10.941076   0.000000
  286       11.098267   0.000000
  287       11.100091   0.000000
  288       11.101153   0.000000
  289       11.242570   0.000000
  290       11.281674   0.000000
  291       11.282745   0.000000
  292       11.307168   0.000000
  293       11.329525   0.000000
  294       11.410162   0.000000
  295       11.468991   0.000000
  296       11.476143   0.000000
  297       11.479406   0.000000
  298       11.613272   0.000000
  299       11.614087   0.000000
  300       11.615774   0.000000
  301       11.776014   0.000000
  302       11.845684   0.000000
  303       11.866959   0.000000
  304       11.868284   0.000000
  305       11.943900   0.000000
  306       11.945910   0.000000
  307       12.065627   0.000000
  308       12.131491   0.000000
  309       12.170653   0.000000
  310       12.173102   0.000000
  311       12.179593   0.000000
  312       12.236921   0.000000
  313       12.372886   0.000000
  314       12.373751   0.000000
  315       12.447554   0.000000
  316       12.540635   0.000000
  317       12.542550   0.000000
  318       12.597956   0.000000
  319       12.723769   0.000000
  320       12.876673   0.000000
  321       12.989890   0.000000
  322       12.994349   0.000000
  323       13.058259   0.000000
  324       13.060548   0.000000
  325       13.076289   0.000000
  326       13.101779   0.000000
  327       13.212674   0.000000
  328       13.295308   0.000000
  329       13.379812   0.000000
  330       13.384790   0.000000
  331       13.415562   0.000000
  332       13.464698   0.000000
  333       13.580129   0.000000
  334       13.640177   0.000000
  335       13.643643   0.000000
  336       13.809103   0.000000
  337       13.841521   0.000000
  338       13.843381   0.000000
  339       13.848820   0.000000
  340       14.027799   0.000000
  341       14.029605   0.000000
  342       14.128474   0.000000
  343       14.197390   0.000000
  344       14.223203   0.000000
  345       14.236669   0.000000
  346       14.238224   0.000000
  347       14.300998   0.000000
  348       14.331643   0.000000
  349       14.333787   0.000000
  350       14.334860   0.000000
  351       14.465575   0.000000
  352       14.467412   0.000000
  353       14.503078   0.000000
  354       14.568801   0.000000
  355       14.605554   0.000000
  356       14.606346   0.000000
  357       14.635554   0.000000
  358       14.643185   0.000000
  359       14.692766   0.000000
  360       14.731545   0.000000
  361       14.796956   0.000000
  362       14.799963   0.000000
  363       14.908347   0.000000
  364       14.957151   0.000000
  365       14.998849   0.000000
  366       15.055406   0.000000
  367       15.062928   0.000000
  368       15.082047   0.000000
  369       15.182623   0.000000
  370       15.186604   0.000000
  371       15.320873   0.000000
  372       15.416814   0.000000
  373       15.473101   0.000000
  374       15.484606   0.000000
  375       15.486537   0.000000
  376       15.554857   0.000000
  377       15.589300   0.000000
  378       15.655326   0.000000
  379       15.658014   0.000000
  380       15.771110   0.000000
  381       15.783654   0.000000
  382       15.785569   0.000000
  383       15.811810   0.000000
  384       15.827155   0.000000
  385       15.948582   0.000000
  386       15.979137   0.000000
  387       15.979578   0.000000
  388       16.053977   0.000000
  389       16.095871   0.000000
  390       16.097247   0.000000
  391       16.099241   0.000000
  392       16.227607   0.000000
  393       16.286738   0.000000
  394       16.288704   0.000000
  395       16.358484   0.000000
  396       16.416932   0.000000
  397       16.594833   0.000000
  398       16.601458   0.000000
  399       16.603255   0.000000
  400       16.673957   0.000000
  401       16.718718   0.000000
  402       16.720766   0.000000
  403       16.844621   0.000000
  404       16.845209   0.000000
  405       16.947598   0.000000
  406       17.007657   0.000000
  407       17.008945   0.000000
  408       17.026837   0.000000
 
  0.5000000E+00  0.0000000E+00  0.0000000E+00  0.8333333E-01
    1       -5.752632   1.000000
    2       -5.685180   1.000000
    3       -4.915607   1.000000
    4       -4.914530   1.000000
    5       -4.638762   1.000000
    6       -4.570702   1.000000
    7       -4.253773   1.000000
    8       -4.252179   1.000000
    9       -3.915190   1.000000
   10       -3.914875   1.000000
   11       -3.702388   1.000000
   12       -3.689569   1.000000
   13       -3.455360   1.000000
   14       -3.455068   1.000000
   15       -3.341002   1.000000
   16       -3.306530   1.000000
   17       -2.197717   1.000000
   18       -2.196671   1.000000
   19       -2.187234   1.000000
   20       -2.169123   1.000000
   21       -2.096724   1.000000
   22       -2.096217   1.000000
   23       -2.000200   1.000000
   24       -1.973834   1.000000
   25       -1.946103   1.000000
   26       -1.945722   1.000000
   27       -1.916081   1.000000
   28       -1.915724   1.000000
   29       -1.679755   1.000000
   30       -1.665334   1.000000
   31       -1.587601   1.000000
   32       -1.568075   1.000000
   33       -1.563518   1.000000
   34       -1.562293   1.000000
   35       -1.519145   1.000000
   36       -1.484927   1.000000
   37       -1.420652   1.000000
   38       -1.393535   1.000000
   39       -1.275390   1.000000
   40       -1.261803   1.000000
   41       -1.249832   1.000000
   42       -1.249182   1.000000
   43       -1.215187   1.000000
   44       -1.189963   1.000000
   45       -1.188386   1.000000
   46       -1.172552   1.000000
   47       -1.116258   1.000000
   48       -1.116128   1.000000
   49       -1.097520   1.000000
   50       -1.075833   1.000000
   51       -1.073640   1.000000
   52       -1.049627   1.000000
   53       -1.040920   1.000000
   54       -1.040047   1.000000
   55       -1.019585   1.000000
   56       -0.977592   1.000000
   57       -0.974336   1.000000
   58       -0.974172   1.000000
   59       -0.904799   1.000000
   60       -0.875595   1.000000
   61       -0.864937   1.000000
   62       -0.850392   1.000000
   63       -0.849004   1.000000
   64       -0.825530   1.000000
   65       -0.748999   1.000000
   66       -0.748329   1.000000
   67       -0.736753   1.000000
   68       -0.720827   1.000000
   69       -0.693244   1.000000
   70       -0.692772   1.000000
   71       -0.632710   1.000000
   72       -0.631222   1.000000
   73       -0.600790   1.000000
   74       -0.600069   1.000000
   75       -0.599076   1.000000
   76       -0.576681   1.000000
   77       -0.564693   1.000000
   78       -0.540071   1.000000
   79       -0.501770   1.000000
   80       -0.461748   1.000000
   81       -0.439608   1.000000