alloy-surf                              
           1
     8.392900    0.000000    0.000000
     0.003996   11.450199    0.000000
     0.000000    0.000000   16.358500
   In   Pd
  16  32
Direct configuration=     1
   0.50000000  0.05537500  0.00000000
   0.79879999  0.30522501  0.00000000
   0.00000000  0.12707500  0.12957001
   0.29850000  0.37722501  0.12957001
   0.50000000  0.05537500  0.25913000
   0.79879999  0.30522501  0.25913000
   0.00000000  0.12707500  0.38870001
   0.29850000  0.37722501  0.38870001
   0.50000000  0.55537500  0.00000000
   0.79879999  0.80522501  0.00000000
   0.00000000  0.62707500  0.12957001
   0.29850000  0.87722501  0.12957001
   0.50000000  0.55537500  0.25913000
   0.79879999  0.80522501  0.25913000
   0.00000000  0.62707500  0.38870001
   0.29850000  0.87722501  0.38870001
   0.12980001  0.25002500  0.00000000
   0.16910000  0.49997500  0.00000000
   0.47170001  0.29502499  0.00000000
   0.82700002  0.04487500  0.00000000
   0.32710001  0.13757500  0.12957001
   0.62949997  0.43222499  0.12957001
   0.66900003  0.18237500  0.12957001
   0.97160000  0.38742501  0.12957001
   0.12980001  0.25002500  0.25913000
   0.16910000  0.49997500  0.25913000
   0.47170001  0.29502499  0.25913000
   0.82700002  0.04487500  0.25913000
   0.32710001  0.13757500  0.38870001
   0.62949997  0.43222499  0.38870001
   0.66900003  0.18237500  0.38870001
   0.97160000  0.38742501  0.38870001
   0.12980001  0.75002500  0.00000000
   0.16910000  0.99997500  0.00000000
   0.47170001  0.79502499  0.00000000
   0.82700002  0.54487500  0.00000000
   0.32710001  0.63757500  0.12957001
   0.62949997  0.93222499  0.12957001
   0.66900003  0.68237500  0.12957001
   0.97160000  0.88742501  0.12957001
   0.12980001  0.75002500  0.25913000
   0.16910000  0.99997500  0.25913000
   0.47170001  0.79502499  0.25913000
   0.82700002  0.54487500  0.25913000
   0.32710001  0.63757500  0.38870001
   0.62949997  0.93222499  0.38870001
   0.66900003  0.68237500  0.38870001
   0.97160000  0.88742501  0.38870001
Direct configuration=     2
   0.50000000  0.05537500  0.00000000
   0.79879999  0.30522501  0.00000000
   0.00000000  0.12707500  0.12957001
   0.29850000  0.37722501  0.12957001
   0.50013333  0.05536755  0.25939377
   0.79865905  0.30520149  0.25939580
  -0.00037505  0.12729362  0.38895009
   0.29887178  0.37745297  0.38896028
   0.50000000  0.55537500  0.00000000
   0.79879999  0.80522501  0.00000000
   0.00000000  0.62707500  0.12957001
   0.29850000  0.87722501  0.12957001
   0.50013333  0.55536755  0.25939377
   0.79865905  0.80520149  0.25939580
  -0.00037505  0.62729362  0.38895009
   0.29887178  0.87745297  0.38896028
   0.12980001  0.25002500  0.00000000
   0.16910000  0.49997500  0.00000000
   0.47170001  0.29502499  0.00000000
   0.82700002  0.04487500  0.00000000
   0.32710001  0.13757500  0.12957001
   0.62949997  0.43222499  0.12957001
   0.66900003  0.18237500  0.12957001
   0.97160000  0.38742501  0.12957001
   0.12985489  0.25007057  0.25920412
   0.16898751  0.50003398  0.25921231
   0.47175667  0.29499745  0.25918147
   0.82697585  0.04484579  0.25918151
   0.32707387  0.13740515  0.38841974
   0.62930931  0.43232405  0.38834048
   0.66919688  0.18246889  0.38834051
   0.97162916  0.38724161  0.38842087
   0.12980001  0.75002500  0.00000000
   0.16910000  0.99997500  0.00000000
   0.47170001  0.79502499  0.00000000
   0.82700002  0.54487500  0.00000000
   0.32710001  0.63757500  0.12957001
   0.62949997  0.93222499  0.12957001
   0.66900003  0.68237500  0.12957001
   0.97160000  0.88742501  0.12957001
   0.12985489  0.75007057  0.25920412
   0.16898751  1.00003398  0.25921231
   0.47175667  0.79499745  0.25918147
   0.82697585  0.54484579  0.25918151
   0.32707387  0.63740515  0.38841974
   0.62930931  0.93232405  0.38834048
   0.66919688  0.68246889  0.38834051
   0.97162916  0.88724161  0.38842087
Direct configuration=     3
   0.50000000  0.05537500  0.00000000
   0.79879999  0.30522501  0.00000000
   0.00000000  0.12707500  0.12957001
   0.29850000  0.37722501  0.12957001
   0.50095796  0.05534550  0.26096696
   0.79776715  0.30510746  0.26096475
  -0.00305275  0.12887073  0.39074240
   0.30150605  0.37899237  0.39077025
   0.50000000  0.55537500  0.00000000
   0.79879999  0.80522501  0.00000000
   0.00000000  0.62707500  0.12957001
   0.29850000  0.87722501  0.12957001
   0.50095796  0.55534550  0.26096696
   0.79776715  0.80510746  0.26096475
  -0.00305275  0.62887073  0.39074240
   0.30150605  0.87899237  0.39077025
   0.12980001  0.25002500  0.00000000
   0.16910000  0.49997500  0.00000000
   0.47170001  0.29502499  0.00000000
   0.82700002  0.04487500  0.00000000
   0.32710001  0.13757500  0.12957001
   0.62949997  0.43222499  0.12957001
   0.66900003  0.18237500  0.12957001
   0.97160000  0.38742501  0.12957001
   0.13026959  0.25035932  0.25973795
   0.16824507  0.50042890  0.25978032
   0.47196691  0.29479764  0.25951082
   0.82698551  0.04463189  0.25950279
   0.32664391  0.13628704  0.38647488
   0.62803593  0.43299766  0.38588297
   0.67049163  0.18311705  0.38589593
   0.97201993  0.38607848  0.38647399
   0.12980001  0.75002500  0.00000000
   0.16910000  0.99997500  0.00000000
   0.47170001  0.79502499  0.00000000
   0.82700002  0.54487500  0.00000000
   0.32710001  0.63757500  0.12957001
   0.62949997  0.93222499  0.12957001
   0.66900003  0.68237500  0.12957001
   0.97160000  0.88742501  0.12957001
   0.13026959  0.75035932  0.25973795
   0.16824507  1.00042890  0.25978032
   0.47196691  0.79479764  0.25951082
   0.82698551  0.54463189  0.25950279
   0.32664391  0.63628704  0.38647488
   0.62803593  0.93299766  0.38588297
   0.67049163  0.68311705  0.38589593
   0.97201993  0.88607848  0.38647399
Direct configuration=     4
   0.50000000  0.05537500  0.00000000
   0.79879999  0.30522501  0.00000000
   0.00000000  0.12707500  0.12957001
   0.29850000  0.37722501  0.12957001
   0.50076246  0.05538964  0.26032221
   0.79794537  0.30513046  0.26031475
  -0.00297366  0.12881852  0.39077772
   0.30147242  0.37895754  0.39078637
   0.50000000  0.55537500  0.00000000
   0.79879999  0.80522501  0.00000000
   0.00000000  0.62707500  0.12957001
   0.29850000  0.87722501  0.12957001
   0.50076246  0.55538964  0.26032221
   0.79794537  0.80513046  0.26031475
  -0.00297366  0.62881852  0.39077772
   0.30147242  0.87895754  0.39078637
   0.12980001  0.25002500  0.00000000
   0.16910000  0.49997500  0.00000000
   0.47170001  0.29502499  0.00000000
   0.82700002  0.04487500  0.00000000
   0.32710001  0.13757500  0.12957001
   0.62949997  0.43222499  0.12957001
   0.66900003  0.18237500  0.12957001
   0.97160000  0.38742501  0.12957001
   0.13033907  0.25030408  0.25971619
   0.16820692  0.50036653  0.25976094
   0.47156954  0.29477817  0.25939437
   0.82732312  0.04461344  0.25939825
   0.32616727  0.13655309  0.38659475
   0.62827147  0.43295419  0.38611501
   0.67026221  0.18305432  0.38613264
   0.97253866  0.38636799  0.38660769
   0.12980001  0.75002500  0.00000000
   0.16910000  0.99997500  0.00000000
   0.47170001  0.79502499  0.00000000
   0.82700002  0.54487500  0.00000000
   0.32710001  0.63757500  0.12957001
   0.62949997  0.93222499  0.12957001
   0.66900003  0.68237500  0.12957001
   0.97160000  0.88742501  0.12957001
   0.13033907  0.75030408  0.25971619
   0.16820692  1.00036653  0.25976094
   0.47156954  0.79477817  0.25939437
   0.82732312  0.54461344  0.25939825
   0.32616727  0.63655309  0.38659475
   0.62827147  0.93295419  0.38611501
   0.67026221  0.68305432  0.38613264
   0.97253866  0.88636799  0.38660769
Direct configuration=     5
   0.50000000  0.05537500  0.00000000
   0.79879999  0.30522501  0.00000000
   0.00000000  0.12707500  0.12957001
   0.29850000  0.37722501  0.12957001
   0.50092157  0.05552718  0.25933649
   0.79763060  0.30513334  0.25925637
  -0.00629997  0.13072976  0.39338857
   0.30501133  0.38090645  0.39331674
   0.50000000  0.55537500  0.00000000
   0.79879999  0.80522501  0.00000000
   0.00000000  0.62707500  0.12957001
   0.29850000  0.87722501  0.12957001
   0.50092157  0.55552718  0.25933649
   0.79763060  0.80513334  0.25925637
  -0.00629997  0.63072976  0.39338857
   0.30501133  0.88090645  0.39331674
   0.12980001  0.25002500  0.00000000
   0.16910000  0.49997500  0.00000000
   0.47170001  0.29502499  0.00000000
   0.82700002  0.04487500  0.00000000
   0.32710001  0.13757500  0.12957001
   0.62949997  0.43222499  0.12957001
   0.66900003  0.18237500  0.12957001
   0.97160000  0.38742501  0.12957001
   0.13118902  0.25040655  0.26034374
   0.16704290  0.50052577  0.26042130
   0.46979105  0.29444480  0.25930227
   0.82902916  0.04424174  0.25933439
   0.32319896  0.13644580  0.38452120
   0.62783621  0.43369996  0.38387533
   0.67081857  0.18365245  0.38392378
   0.97565718  0.38630438  0.38457002
   0.12980001  0.75002500  0.00000000
   0.16910000  0.99997500  0.00000000
   0.47170001  0.79502499  0.00000000
   0.82700002  0.54487500  0.00000000
   0.32710001  0.63757500  0.12957001
   0.62949997  0.93222499  0.12957001
   0.66900003  0.68237500  0.12957001
   0.97160000  0.88742501  0.12957001
   0.13118902  0.75040655  0.26034374
   0.16704290  1.00052577  0.26042130
   0.46979105  0.79444480  0.25930227
   0.82902916  0.54424174  0.25933439
   0.32319896  0.63644580  0.38452120
   0.62783621  0.93369996  0.38387533
   0.67081857  0.68365245  0.38392378
   0.97565718  0.88630438  0.38457002
Direct configuration=     6
   0.50000000  0.05537500  0.00000000
   0.79879999  0.30522501  0.00000000
   0.00000000  0.12707500  0.12957001
   0.29850000  0.37722501  0.12957001
   0.50085453  0.05554997  0.25901605
   0.79769379  0.30515011  0.25893988
  -0.00654677  0.13085344  0.39355726
   0.30531566  0.38103414  0.39347113
   0.50000000  0.55537500  0.00000000
   0.79879999  0.80522501  0.00000000
   0.00000000  0.62707500  0.12957001
   0.29850000  0.87722501  0.12957001
   0.50085453  0.55554997  0.25901605
   0.79769379  0.80515011  0.25893988
  -0.00654677  0.63085344  0.39355726
   0.30531566  0.88103414  0.39347113
   0.12980001  0.25002500  0.00000000
   0.16910000  0.49997500  0.00000000
   0.47170001  0.29502499  0.00000000
   0.82700002  0.04487500  0.00000000
   0.32710001  0.13757500  0.12957001
   0.62949997  0.43222499  0.12957001
   0.66900003  0.18237500  0.12957001
   0.97160000  0.38742501  0.12957001
   0.13123137  0.25035896  0.26035586
   0.16700609  0.50045665  0.26044124
   0.46950422  0.29444581  0.25926957
   0.82925858  0.04423921  0.25929861
   0.32276695  0.13664560  0.38442874
   0.62805287  0.43373624  0.38379738
   0.67058498  0.18368113  0.38385872
   0.97610611  0.38648467  0.38446877
   0.12980001  0.75002500  0.00000000
   0.16910000  0.99997500  0.00000000
   0.47170001  0.79502499  0.00000000
   0.82700002  0.54487500  0.00000000
   0.32710001  0.63757500  0.12957001
   0.62949997  0.93222499  0.12957001
   0.66900003  0.68237500  0.12957001
   0.97160000  0.88742501  0.12957001
   0.13123137  0.75035896  0.26035586
   0.16700609  1.00045665  0.26044124
   0.46950422  0.79444581  0.25926957
   0.82925858  0.54423921  0.25929861
   0.32276695  0.63664560  0.38442874
   0.62805287  0.93373624  0.38379738
   0.67058498  0.68368113  0.38385872
   0.97610611  0.88648467  0.38446877
Direct configuration=     7
   0.50000000  0.05537500  0.00000000
   0.79879999  0.30522501  0.00000000
   0.00000000  0.12707500  0.12957001
   0.29850000  0.37722501  0.12957001
   0.50086341  0.05555846  0.25891710
   0.79770978  0.30515648  0.25885252
  -0.00682338  0.13099991  0.39370505
   0.30563515  0.38116618  0.39361168
   0.50000000  0.55537500  0.00000000
   0.79879999  0.80522501  0.00000000
   0.00000000  0.62707500  0.12957001
   0.29850000  0.87722501  0.12957001
   0.50086341  0.55555846  0.25891710
   0.79770978  0.80515648  0.25885252
  -0.00682338  0.63099991  0.39370505
   0.30563515  0.88116618  0.39361168
   0.12980001  0.25002500  0.00000000
   0.16910000  0.49997500  0.00000000
   0.47170001  0.29502499  0.00000000
   0.82700002  0.04487500  0.00000000
   0.32710001  0.13757500  0.12957001
   0.62949997  0.43222499  0.12957001
   0.66900003  0.18237500  0.12957001
   0.97160000  0.38742501  0.12957001
   0.13123627  0.25032477  0.26036477
   0.16700415  0.50040429  0.26046382
   0.46935268  0.29446133  0.25927445
   0.82936244  0.04425279  0.25930006
   0.32249575  0.13676079  0.38430210
   0.62820390  0.43378326  0.38364583
   0.67040238  0.18372539  0.38371538
   0.97638170  0.38658107  0.38432831
   0.12980001  0.75002500  0.00000000
   0.16910000  0.99997500  0.00000000
   0.47170001  0.79502499  0.00000000
   0.82700002  0.54487500  0.00000000
   0.32710001  0.63757500  0.12957001
   0.62949997  0.93222499  0.12957001
   0.66900003  0.68237500  0.12957001
   0.97160000  0.88742501  0.12957001
   0.13123627  0.75032477  0.26036477
   0.16700415  1.00040429  0.26046382
   0.46935268  0.79446133  0.25927445
   0.82936244  0.54425279  0.25930006
   0.32249575  0.63676079  0.38430210
   0.62820390  0.93378326  0.38364583
   0.67040238  0.68372539  0.38371538
   0.97638170  0.88658107  0.38432831
Direct configuration=     8
   0.50000000  0.05537500  0.00000000
   0.79879999  0.30522501  0.00000000
   0.00000000  0.12707500  0.12957001
   0.29850000  0.37722501  0.12957001
   0.50089356  0.05557412  0.25869552
   0.79774292  0.30518354  0.25867948
  -0.00749708  0.13136893  0.39406340
   0.30649756  0.38151504  0.39396597
   0.50000000  0.55537500  0.00000000
   0.79879999  0.80522501  0.00000000
   0.00000000  0.62707500  0.12957001
   0.29850000  0.87722501  0.12957001
   0.50089356  0.55557412  0.25869552
   0.79774292  0.80518354  0.25867948
  -0.00749708  0.63136893  0.39406340
   0.30649756  0.88151504  0.39396597
   0.12980001  0.25002500  0.00000000
   0.16910000  0.49997500  0.00000000
   0.47170001  0.29502499  0.00000000
   0.82700002  0.04487500  0.00000000
   0.32710001  0.13757500  0.12957001
   0.62949997  0.43222499  0.12957001
   0.66900003  0.18237500  0.12957001
   0.97160000  0.38742501  0.12957001
   0.13120154  0.25020708  0.26036031
   0.16706283  0.50023731  0.26050267
   0.46897564  0.29453251  0.25929718
   0.82960268  0.04432744  0.25930369
   0.32177941  0.13713136  0.38397743
   0.62868252  0.43390794  0.38323736
   0.66977120  0.18387040  0.38332822
   0.97710831  0.38688556  0.38396322
   0.12980001  0.75002500  0.00000000
   0.16910000  0.99997500  0.00000000
   0.47170001  0.79502499  0.00000000
   0.82700002  0.54487500  0.00000000
   0.32710001  0.63757500  0.12957001
   0.62949997  0.93222499  0.12957001
   0.66900003  0.68237500  0.12957001
   0.97160000  0.88742501  0.12957001
   0.13120154  0.75020708  0.26036031
   0.16706283  1.00023731  0.26050267
   0.46897564  0.79453251  0.25929718
   0.82960268  0.54432744  0.25930369
   0.32177941  0.63713136  0.38397743
   0.62868252  0.93390794  0.38323736
   0.66977120  0.68387040  0.38332822
   0.97710831  0.88688556  0.38396322
Direct configuration=     9
   0.50000000  0.05537500  0.00000000
   0.79879999  0.30522501  0.00000000
   0.00000000  0.12707500  0.12957001
   0.29850000  0.37722501  0.12957001
   0.50089203  0.05558157  0.25859110
   0.79777157  0.30520370  0.25859908
  -0.00781829  0.13155199  0.39421874
   0.30689036  0.38168194  0.39411971
   0.50000000  0.55537500  0.00000000
   0.79879999  0.80522501  0.00000000
   0.00000000  0.62707500  0.12957001
   0.29850000  0.87722501  0.12957001
   0.50089203  0.55558157  0.25859110
   0.79777157  0.80520370  0.25859908
  -0.00781829  0.63155199  0.39421874
   0.30689036  0.88168194  0.39411971
   0.12980001  0.25002500  0.00000000
   0.16910000  0.49997500  0.00000000
   0.47170001  0.29502499  0.00000000
   0.82700002  0.04487500  0.00000000
   0.32710001  0.13757500  0.12957001
   0.62949997  0.43222499  0.12957001
   0.66900003  0.18237500  0.12957001
   0.97160000  0.38742501  0.12957001
   0.13116549  0.25013843  0.26034590
   0.16711607  0.50014371  0.26051168
   0.46880084  0.29457286  0.25930408
   0.82972487  0.04437954  0.25930563
   0.32142320  0.13732765  0.38382690
   0.62897106  0.43397085  0.38305319
   0.66941697  0.18393690  0.38314887
   0.97746439  0.38705273  0.38380062
   0.12980001  0.75002500  0.00000000
   0.16910000  0.99997500  0.00000000
   0.47170001  0.79502499  0.00000000
   0.82700002  0.54487500  0.00000000
   0.32710001  0.63757500  0.12957001
   0.62949997  0.93222499  0.12957001
   0.66900003  0.68237500  0.12957001
   0.97160000  0.88742501  0.12957001
   0.13116549  0.75013843  0.26034590
   0.16711607  1.00014371  0.26051168
   0.46880084  0.79457286  0.25930408
   0.82972487  0.54437954  0.25930563
   0.32142320  0.63732765  0.38382690
   0.62897106  0.93397085  0.38305319
   0.66941697  0.68393690  0.38314887
   0.97746439  0.88705273  0.38380062
Direct configuration=    10
   0.50000000  0.05537500  0.00000000
   0.79879999  0.30522501  0.00000000
   0.00000000  0.12707500  0.12957001
   0.29850000  0.37722501  0.12957001
   0.50087493  0.05558461  0.25856988
   0.79779399  0.30521530  0.25861676
  -0.00799839  0.13166084  0.39424046
   0.30706394  0.38177212  0.39414886
   0.50000000  0.55537500  0.00000000
   0.79879999  0.80522501  0.00000000
   0.00000000  0.62707500  0.12957001
   0.29850000  0.87722501  0.12957001
   0.50087493  0.55558461  0.25856988
   0.79779399  0.80521530  0.25861676
  -0.00799839  0.63166084  0.39424046
   0.30706394  0.88177212  0.39414886
   0.12980001  0.25002500  0.00000000
   0.16910000  0.49997500  0.00000000
   0.47170001  0.29502499  0.00000000
   0.82700002  0.04487500  0.00000000
   0.32710001  0.13757500  0.12957001
   0.62949997  0.43222499  0.12957001
   0.66900003  0.18237500  0.12957001
   0.97160000  0.38742501  0.12957001
   0.13106727  0.25006470  0.26029652
   0.16723072  0.50006442  0.26048062
   0.46875038  0.29463856  0.25929055
   0.82977638  0.04446279  0.25930828
   0.32124536  0.13748739  0.38377004
   0.62927507  0.43399295  0.38299564
   0.66911451  0.18395386  0.38308612
   0.97763315  0.38720443  0.38375805
   0.12980001  0.75002500  0.00000000
   0.16910000  0.99997500  0.00000000
   0.47170001  0.79502499  0.00000000
   0.82700002  0.54487500  0.00000000
   0.32710001  0.63757500  0.12957001
   0.62949997  0.93222499  0.12957001
   0.66900003  0.68237500  0.12957001
   0.97160000  0.88742501  0.12957001
   0.13106727  0.75006470  0.26029652
   0.16723072  1.00006442  0.26048062
   0.46875038  0.79463856  0.25929055
   0.82977638  0.54446279  0.25930828
   0.32124536  0.63748739  0.38377004
   0.62927507  0.93399295  0.38299564
   0.66911451  0.68395386  0.38308612
   0.97763315  0.88720443  0.38375805
Direct configuration=    11
   0.50000000  0.05537500  0.00000000
   0.79879999  0.30522501  0.00000000
   0.00000000  0.12707500  0.12957001
   0.29850000  0.37722501  0.12957001
   0.50078794  0.05561223  0.25843280
   0.79792944  0.30530993  0.25866379
  -0.00919083  0.13237392  0.39442659
   0.30818294  0.38235806  0.39437441
   0.50000000  0.55537500  0.00000000
   0.79879999  0.80522501  0.00000000
   0.00000000  0.62707500  0.12957001
   0.29850000  0.87722501  0.12957001
   0.50078794  0.55561223  0.25843280
   0.79792944  0.80530993  0.25866379
  -0.00919083  0.63237392  0.39442659
   0.30818294  0.88235806  0.39437441
   0.12980001  0.25002500  0.00000000
   0.16910000  0.49997500  0.00000000
   0.47170001  0.29502499  0.00000000
   0.82700002  0.04487500  0.00000000
   0.32710001  0.13757500  0.12957001
   0.62949997  0.43222499  0.12957001
   0.66900003  0.18237500  0.12957001
   0.97160000  0.38742501  0.12957001
   0.13051271  0.24961909  0.26002277
   0.16792197  0.49961675  0.26032322
   0.46840555  0.29501006  0.25922570
   0.83012923  0.04493647  0.25932397
   0.32009644  0.13846670  0.38339877
   0.63102582  0.43415853  0.38258684
   0.66729471  0.18406201  0.38267191
   0.97876266  0.38807776  0.38345788
   0.12980001  0.75002500  0.00000000
   0.16910000  0.99997500  0.00000000
   0.47170001  0.79502499  0.00000000
   0.82700002  0.54487500  0.00000000
   0.32710001  0.63757500  0.12957001
   0.62949997  0.93222499  0.12957001
   0.66900003  0.68237500  0.12957001
   0.97160000  0.88742501  0.12957001
   0.13051271  0.74961909  0.26002277
   0.16792197  0.99961675  0.26032322
   0.46840555  0.79501006  0.25922570
   0.83012923  0.54493647  0.25932397
   0.32009644  0.63846670  0.38339877
   0.63102582  0.93415853  0.38258684
   0.66729471  0.68406201  0.38267191
   0.97876266  0.88807776  0.38345788
Direct configuration=    12
   0.50000000  0.05537500  0.00000000
   0.79879999  0.30522501  0.00000000
   0.00000000  0.12707500  0.12957001
   0.29850000  0.37722501  0.12957001
   0.50073426  0.05563304  0.25840378
   0.79798957  0.30538171  0.25871668
  -0.00990125  0.13279633  0.39449599
   0.30885213  0.38272839  0.39447007
   0.50000000  0.55537500  0.00000000
   0.79879999  0.80522501  0.00000000
   0.00000000  0.62707500  0.12957001
   0.29850000  0.87722501  0.12957001
   0.50073426  0.55563304  0.25840378
   0.79798957  0.80538171  0.25871668
  -0.00990125  0.63279633  0.39449599
   0.30885213  0.88272839  0.39447007
   0.12980001  0.25002500  0.00000000
   0.16910000  0.49997500  0.00000000
   0.47170001  0.29502499  0.00000000
   0.82700002  0.04487500  0.00000000
   0.32710001  0.13757500  0.12957001
   0.62949997  0.43222499  0.12957001
   0.66900003  0.18237500  0.12957001
   0.97160000  0.38742501  0.12957001
   0.13013170  0.24934310  0.25984635
   0.16837419  0.49933962  0.26020847
   0.46823607  0.29525606  0.25917951
   0.83033279  0.04524907  0.25933053
   0.31938116  0.13908144  0.38319573
   0.63215400  0.43425991  0.38237322
   0.66613523  0.18412383  0.38245829
   0.97945683  0.38862916  0.38330862
   0.12980001  0.75002500  0.00000000
   0.16910000  0.99997500  0.00000000
   0.47170001  0.79502499  0.00000000
   0.82700002  0.54487500  0.00000000
   0.32710001  0.63757500  0.12957001
   0.62949997  0.93222499  0.12957001
   0.66900003  0.68237500  0.12957001
   0.97160000  0.88742501  0.12957001
   0.13013170  0.74934310  0.25984635
   0.16837419  0.99933962  0.26020847
   0.46823607  0.79525606  0.25917951
   0.83033279  0.54524907  0.25933053
   0.31938116  0.63908144  0.38319573
   0.63215400  0.93425991  0.38237322
   0.66613523  0.68412383  0.38245829
   0.97945683  0.88862916  0.38330862
Direct configuration=    13
   0.50000000  0.05537500  0.00000000
   0.79879999  0.30522501  0.00000000
   0.00000000  0.12707500  0.12957001
   0.29850000  0.37722501  0.12957001
   0.50073679  0.05565693  0.25852439
   0.79793840  0.30542435  0.25877408
  -0.01000220  0.13287014  0.39442560
   0.30894053  0.38283015  0.39439251
   0.50000000  0.55537500  0.00000000
   0.79879999  0.80522501  0.00000000
   0.00000000  0.62707500  0.12957001
   0.29850000  0.87722501  0.12957001
   0.50073679  0.55565693  0.25852439
   0.79793840  0.80542435  0.25877408
  -0.01000220  0.63287014  0.39442560
   0.30894053  0.88283015  0.39439251
   0.12980001  0.25002500  0.00000000
   0.16910000  0.49997500  0.00000000
   0.47170001  0.29502499  0.00000000
   0.82700002  0.04487500  0.00000000
   0.32710001  0.13757500  0.12957001
   0.62949997  0.43222499  0.12957001
   0.66900003  0.18237500  0.12957001
   0.97160000  0.38742501  0.12957001
   0.12997061  0.24932276  0.25980431
   0.16848909  0.49931692  0.26014275
   0.46828153  0.29533471  0.25915392
   0.83035046  0.04532649  0.25932651
   0.31919969  0.13921151  0.38319813
   0.63245332  0.43427066  0.38241140
   0.66592298  0.18412227  0.38251090
   0.97959133  0.38877135  0.38332887
   0.12980001  0.75002500  0.00000000
   0.16910000  0.99997500  0.00000000
   0.47170001  0.79502499  0.00000000
   0.82700002  0.54487500  0.00000000
   0.32710001  0.63757500  0.12957001
   0.62949997  0.93222499  0.12957001
   0.66900003  0.68237500  0.12957001
   0.97160000  0.88742501  0.12957001
   0.12997061  0.74932276  0.25980431
   0.16848909  0.99931692  0.26014275
   0.46828153  0.79533471  0.25915392
   0.83035046  0.54532649  0.25932651
   0.31919969  0.63921151  0.38319813
   0.63245332  0.93427066  0.38241140
   0.66592298  0.68412227  0.38251090
   0.97959133  0.88877135  0.38332887
Direct configuration=    14
   0.50000000  0.05537500  0.00000000
   0.79879999  0.30522501  0.00000000
   0.00000000  0.12707500  0.12957001
   0.29850000  0.37722501  0.12957001
   0.50070646  0.05574182  0.25873537
   0.79787877  0.30554220  0.25889505
  -0.01049683  0.13319598  0.39433541
   0.30944010  0.38322039  0.39428303
   0.50000000  0.55537500  0.00000000
   0.79879999  0.80522501  0.00000000
   0.00000000  0.62707500  0.12957001
   0.29850000  0.87722501  0.12957001
   0.50070646  0.55574182  0.25873537
   0.79787877  0.80554220  0.25889505
  -0.01049683  0.63319598  0.39433541
   0.30944010  0.88322039  0.39428303
   0.12980001  0.25002500  0.00000000
   0.16910000  0.49997500  0.00000000
   0.47170001  0.29502499  0.00000000
   0.82700002  0.04487500  0.00000000
   0.32710001  0.13757500  0.12957001
   0.62949997  0.43222499  0.12957001
   0.66900003  0.18237500  0.12957001
   0.97160000  0.38742501  0.12957001
   0.12950336  0.24919266  0.25967252
   0.16886466  0.49918448  0.25995936
   0.46828953  0.29558808  0.25908654
   0.83045958  0.04559225  0.25931226
   0.31853279  0.13969809  0.38311829
   0.63349659  0.43433365  0.38241228
   0.66506964  0.18415770  0.38253437
   0.98015526  0.38927057  0.38329464
   0.12980001  0.75002500  0.00000000
   0.16910000  0.99997500  0.00000000
   0.47170001  0.79502499  0.00000000
   0.82700002  0.54487500  0.00000000
   0.32710001  0.63757500  0.12957001
   0.62949997  0.93222499  0.12957001
   0.66900003  0.68237500  0.12957001
   0.97160000  0.88742501  0.12957001
   0.12950336  0.74919266  0.25967252
   0.16886466  0.99918448  0.25995936
   0.46828953  0.79558808  0.25908654
   0.83045958  0.54559225  0.25931226
   0.31853279  0.63969809  0.38311829
   0.63349659  0.93433365  0.38241228
   0.66506964  0.68415770  0.38253437
   0.98015526  0.88927057  0.38329464
Direct configuration=    15
   0.50000000  0.05537500  0.00000000
   0.79879999  0.30522501  0.00000000
   0.00000000  0.12707500  0.12957001
   0.29850000  0.37722501  0.12957001
   0.50073647  0.05570122  0.25869260
   0.79786761  0.30547192  0.25884039
  -0.00999719  0.13288741  0.39431781
   0.30895036  0.38292190  0.39426207
   0.50000000  0.55537500  0.00000000
   0.79879999  0.80522501  0.00000000
   0.00000000  0.62707500  0.12957001
   0.29850000  0.87722501  0.12957001
   0.50073647  0.55570122  0.25869260
   0.79786761  0.80547192  0.25884039
  -0.00999719  0.63288741  0.39431781
   0.30895036  0.88292190  0.39426207
   0.12980001  0.25002500  0.00000000
   0.16910000  0.49997500  0.00000000
   0.47170001  0.29502499  0.00000000
   0.82700002  0.04487500  0.00000000
   0.32710001  0.13757500  0.12957001
   0.62949997  0.43222499  0.12957001
   0.66900003  0.18237500  0.12957001
   0.97160000  0.38742501  0.12957001
   0.12981083  0.24934531  0.25978540
   0.16856300  0.49934303  0.26006468
   0.46837814  0.29540312  0.25912878
   0.83032568  0.04537337  0.25931665
   0.31908612  0.13927106  0.38324151
   0.63266793  0.43426645  0.38251484
   0.66584258  0.18411766  0.38263214
   0.97963937  0.38886377  0.38338673
   0.12980001  0.75002500  0.00000000
   0.16910000  0.99997500  0.00000000
   0.47170001  0.79502499  0.00000000
   0.82700002  0.54487500  0.00000000
   0.32710001  0.63757500  0.12957001
   0.62949997  0.93222499  0.12957001
   0.66900003  0.68237500  0.12957001
   0.97160000  0.88742501  0.12957001
   0.12981083  0.74934531  0.25978540
   0.16856300  0.99934303  0.26006468
   0.46837814  0.79540312  0.25912878
   0.83032568  0.54537337  0.25931665
   0.31908612  0.63927106  0.38324151
   0.63266793  0.93426645  0.38251484
   0.66584258  0.68411766  0.38263214
   0.97963937  0.88886377  0.38338673
Direct configuration=    16
   0.50000000  0.05537500  0.00000000
   0.79879999  0.30522501  0.00000000
   0.00000000  0.12707500  0.12957001
   0.29850000  0.37722501  0.12957001
   0.50079348  0.05569922  0.25884766
   0.79777636  0.30541816  0.25883406
  -0.00906787  0.13234624  0.39413439
   0.30805212  0.38250467  0.39402863
   0.50000000  0.55537500  0.00000000
   0.79879999  0.80522501  0.00000000
   0.00000000  0.62707500  0.12957001
   0.29850000  0.87722501  0.12957001
   0.50079348  0.55569922  0.25884766
   0.79777636  0.80541816  0.25883406
  -0.00906787  0.63234624  0.39413439
   0.30805212  0.88250467  0.39402863
   0.12980001  0.25002500  0.00000000
   0.16910000  0.49997500  0.00000000
   0.47170001  0.29502499  0.00000000
   0.82700002  0.04487500  0.00000000
   0.32710001  0.13757500  0.12957001
   0.62949997  0.43222499  0.12957001
   0.66900003  0.18237500  0.12957001
   0.97160000  0.38742501  0.12957001
   0.13017323  0.24965800  0.25996993
   0.16808360  0.49967301  0.26014832
   0.46868435  0.29516154  0.25917783
   0.83001865  0.04502229  0.25931225
   0.31994937  0.13857410  0.38353291
   0.63143632  0.43413799  0.38286797
   0.66718556  0.18406883  0.38299919
   0.97872293  0.38824574  0.38363999
   0.12980001  0.75002500  0.00000000
   0.16910000  0.99997500  0.00000000
   0.47170001  0.79502499  0.00000000
   0.82700002  0.54487500  0.00000000
   0.32710001  0.63757500  0.12957001
   0.62949997  0.93222499  0.12957001
   0.66900003  0.68237500  0.12957001
   0.97160000  0.88742501  0.12957001
   0.13017323  0.74965800  0.25996993
   0.16808360  0.99967301  0.26014832
   0.46868435  0.79516154  0.25917783
   0.83001865  0.54502229  0.25931225
   0.31994937  0.63857410  0.38353291
   0.63143632  0.93413799  0.38286797
   0.66718556  0.68406883  0.38299919
   0.97872293  0.88824574  0.38363999
Direct configuration=    17
   0.50000000  0.05537500  0.00000000
   0.79879999  0.30522501  0.00000000
   0.00000000  0.12707500  0.12957001
   0.29850000  0.37722501  0.12957001