<?xml version="1.0" encoding="ISO-8859-1"?>
<modeling>
 <generator>
  <i name="program" type="string">vasp </i>
  <i name="version" type="string">5.4.4.18Apr17-6-g9f103f2a35  </i>
  <i name="subversion" type="string">(build May 11 2017 09:47:33) complex            parallel </i>
  <i name="platform" type="string">tekla2IFC </i>
  <i name="date" type="string">2020 09 14 </i>
  <i name="time" type="string">09:47:01 </i>
 </generator>
 <incar>
  <i type="string" name="SYSTEM">   alloy-surf</i>
  <i type="int" name="ISTART">     0</i>
  <i type="string" name="PREC">normal</i>
  <i type="string" name="ALGO">   Fast</i>
  <i type="int" name="ISPIN">     1</i>
  <i name="AMIX">      0.10000000</i>
  <i name="BMIX">      3.00000000</i>
  <i name="AMIN">      0.01000000</i>
  <i type="int" name="ICHARG">     2</i>
  <i type="int" name="NELM">   100</i>
  <i type="int" name="NELMDL">    -7</i>
  <i type="int" name="NELMIN">     5</i>
  <i type="int" name="IBRION">     1</i>
  <i type="int" name="NFREE">     2</i>
  <i name="EDIFF">      0.00001000</i>
  <i name="EDIFFG">     -0.03000000</i>
  <i type="int" name="NSW">   200</i>
  <i name="ENCUT">    450.00000000</i>
  <i type="int" name="NBANDS">   120</i>
  <i name="POTIM">      0.15000000</i>
  <i type="string" name="LREAL">   Auto</i>
  <i type="int" name="ISMEAR">     0</i>
  <i name="SIGMA">      0.03000000</i>
  <i type="int" name="NWRITE">     0</i>
  <i type="logical" name="LWAVE"> F  </i>
  <i type="logical" name="LCHARG"> F  </i>
  <i type="logical" name="LAECHG"> F  </i>
  <v type="int" name="KPOINT_BSE">    -1     0     0     0</v>
  <i type="int" name="NELM">   100</i>
  <i type="string" name="GGA">  PE</i>
  <i type="logical" name="LDIPOL"> T  </i>
  <i type="int" name="IDIPOL">     3</i>
 </incar>
 <structure name="primitive_cell" >
  <crystal>
   <varray name="basis" >
    <v>       4.23899984       0.00000000       0.00000000 </v>
    <v>       0.00000000       8.39290047       0.00000000 </v>
    <v>       0.00000000       0.00000000      14.94929981 </v>
   </varray>
   <i name="volume">    531.85877038 </i>
   <varray name="rec_basis" >
    <v>       0.23590470       0.00000000       0.00000000 </v>
    <v>       0.00000000       0.11914832       0.00000000 </v>
    <v>       0.00000000       0.00000000       0.06689277 </v>
   </varray>
  </crystal>
  <varray name="positions" >
   <v>      -0.25000000      -0.39980000       0.04243000 </v>
   <v>       0.25000000       0.42734000       0.10539000 </v>
   <v>      -0.25000000      -0.07279998       0.03439000 </v>
   <v>      -0.25000000      -0.42798001       0.22599000 </v>
   <v>      -0.25000000       0.26927999       0.00000000 </v>
   <v>       0.25000000      -0.23074001       0.13970999 </v>
   <v>      -0.25000000      -0.10088003       0.23379999 </v>
   <v>      -0.25000000       0.23010001       0.19152001 </v>
   <v>       0.25000000       0.39886001       0.28895000 </v>
   <v>       0.25000000       0.10024000       0.09735000 </v>
   <v>       0.25000000      -0.27012002       0.33107001 </v>
   <v>       0.25000000       0.07196000       0.29675999 </v>
  </varray>
 </structure>
 <varray name="primitive_index" >
  <v type="int" >        1 </v>
  <v type="int" >       19 </v>
  <v type="int" >       10 </v>
  <v type="int" >       14 </v>
  <v type="int" >        9 </v>
  <v type="int" >       20 </v>
  <v type="int" >        3 </v>
  <v type="int" >       13 </v>
  <v type="int" >        8 </v>
  <v type="int" >        6 </v>
  <v type="int" >       24 </v>
  <v type="int" >       23 </v>
 </varray>
 <kpoints>
  <generation param="Gamma">
   <v type="int" name="divisions">       4        4        1 </v>
   <v name="usershift">      0.00000000       0.00000000       0.00000000 </v>
   <v name="genvec1">      0.25000000       0.00000000       0.00000000 </v>
   <v name="genvec2">      0.00000000       0.25000000       0.00000000 </v>
   <v name="genvec3">      0.00000000       0.00000000       1.00000000 </v>
   <v name="shift">      0.00000000       0.00000000       0.00000000 </v>
  </generation>
  <varray name="kpointlist" >
   <v>       0.00000000       0.00000000       0.00000000 </v>
   <v>       0.25000000       0.00000000       0.00000000 </v>
   <v>       0.50000000       0.00000000       0.00000000 </v>
   <v>       0.00000000       0.25000000       0.00000000 </v>
   <v>       0.25000000       0.25000000       0.00000000 </v>
   <v>       0.50000000       0.25000000       0.00000000 </v>
   <v>       0.00000000       0.50000000       0.00000000 </v>
   <v>       0.25000000       0.50000000       0.00000000 </v>
   <v>       0.50000000       0.50000000       0.00000000 </v>
  </varray>
  <varray name="weights" >
   <v>       0.06250000 </v>
   <v>       0.12500000 </v>
   <v>       0.06250000 </v>
   <v>       0.12500000 </v>
   <v>       0.25000000 </v>
   <v>       0.12500000 </v>
   <v>       0.06250000 </v>
   <v>       0.12500000 </v>
   <v>       0.06250000 </v>
  </varray>
 </kpoints>
 <parameters>
  <separator name="general" >
   <i type="string" name="SYSTEM">alloy-surf</i>
   <i type="logical" name="LCOMPAT"> F  </i>
  </separator>
  <separator name="electronic" >
   <i type="string" name="PREC">normal</i>
   <i name="ENMAX">    450.00000000</i>
   <i name="ENAUG">    416.23000000</i>
   <i name="EDIFF">      0.00001000</i>
   <i type="int" name="IALGO">    68</i>
   <i type="int" name="IWAVPR">    11</i>
   <i type="int" name="NBANDS">   120</i>
   <i name="NELECT">    184.00000000</i>
   <i type="int" name="TURBO">     0</i>
   <i type="int" name="IRESTART">     0</i>
   <i type="int" name="NREBOOT">     0</i>
   <i type="int" name="NMIN">     0</i>
   <i name="EREF">      0.00000000</i>
   <separator name="electronic smearing" >
    <i type="int" name="ISMEAR">     0</i>
    <i name="SIGMA">      0.03000000</i>
    <i name="KSPACING">      0.50000000</i>
    <i type="logical" name="KGAMMA"> T  </i>
   </separator>
   <separator name="electronic projectors" >
    <i type="logical" name="LREAL"> T  </i>
    <v name="ROPT">     -0.00050000     -0.00050000</v>
    <i type="int" name="LMAXPAW">  -100</i>
    <i type="int" name="LMAXMIX">     2</i>
    <i type="logical" name="NLSPLINE"> F  </i>
   </separator>
   <separator name="electronic startup" >
    <i type="int" name="ISTART">     0</i>
    <i type="int" name="ICHARG">     2</i>
    <i type="int" name="INIWAV">     1</i>
   </separator>
   <separator name="electronic spin" >
    <i type="int" name="ISPIN">     1</i>
    <i type="logical" name="LNONCOLLINEAR"> F  </i>
    <v name="MAGMOM">      1.00000000      1.00000000      1.00000000      1.00000000      1.00000000      1.00000000      1.00000000      1.00000000      1.00000000      1.00000000      1.00000000      1.00000000      1.00000000      1.00000000      1.00000000      1.00000000      1.00000000      1.00000000      1.00000000      1.00000000
      1.00000000      1.00000000      1.00000000      1.00000000</v>
    <i name="NUPDOWN">     -1.00000000</i>
    <i type="logical" name="LSORBIT"> F  </i>
    <v name="SAXIS">      0.00000000      0.00000000      1.00000000</v>
    <i type="logical" name="LSPIRAL"> F  </i>
    <v name="QSPIRAL">      0.00000000      0.00000000      0.00000000</v>
    <i type="logical" name="LZEROZ"> F  </i>
   </separator>
   <separator name="electronic exchange-correlation" >
    <i type="logical" name="LASPH"> F  </i>
    <i type="logical" name="LMETAGGA"> F  </i>
   </separator>
   <separator name="electronic convergence" >
    <i type="int" name="NELM">   100</i>
    <i type="int" name="NELMDL">    -7</i>
    <i type="int" name="NELMIN">     5</i>
    <i name="ENINI">    450.00000000</i>
    <separator name="electronic convergence detail" >
     <i type="logical" name="LDIAG"> T  </i>
     <i type="logical" name="LSUBROT"> F  </i>
     <i name="WEIMIN">      0.00100000</i>
     <i name="EBREAK">      0.00000002</i>
     <i name="DEPER">      0.30000000</i>
     <i type="int" name="NRMM">     4</i>
     <i name="TIME">      0.40000000</i>
    </separator>
   </separator>
   <separator name="electronic mixer" >
    <i name="AMIX">      0.10000000</i>
    <i name="BMIX">      3.00000000</i>
    <i name="AMIN">      0.01000000</i>
    <i name="AMIX_MAG">      0.40000000</i>
    <i name="BMIX_MAG">      3.00000000</i>
    <separator name="electronic mixer details" >
     <i type="int" name="IMIX">     4</i>
     <i type="logical" name="MIXFIRST"> F  </i>
     <i type="int" name="MAXMIX">   -45</i>
     <i name="WC">    100.00000000</i>
     <i type="int" name="INIMIX">     1</i>
     <i type="int" name="MIXPRE">     1</i>
     <i type="int" name="MREMOVE">     5</i>
    </separator>
   </separator>
   <separator name="electronic dipolcorrection" >
    <i type="logical" name="LDIPOL"> T  </i>
    <i type="logical" name="LMONO"> F  </i>
    <i type="int" name="IDIPOL">     3</i>
    <i name="EPSILON">      1.00000000</i>
    <v name="DIPOL">   -100.00000000   -100.00000000   -100.00000000</v>
    <i name="EFIELD">      0.00000000</i>
   </separator>
  </separator>
  <separator name="grids" >
   <i type="int" name="NGX">    48</i>
   <i type="int" name="NGY">    48</i>
   <i type="int" name="NGZ">    80</i>
   <i type="int" name="NGXF">    96</i>
   <i type="int" name="NGYF">    96</i>
   <i type="int" name="NGZF">   160</i>
   <i type="logical" name="ADDGRID"> F  </i>
  </separator>
  <separator name="ionic" >
   <i type="int" name="NSW">   200</i>
   <i type="int" name="IBRION">     1</i>
   <i type="int" name="MDALGO">     0</i>
   <i type="int" name="ISIF">     2</i>
   <i name="PSTRESS">      0.00000000</i>
   <i name="EDIFFG">     -0.03000000</i>
   <i type="int" name="NFREE">     2</i>
   <i name="POTIM">      0.15000000</i>
   <i name="SMASS">     -3.00000000</i>
   <i name="SCALEE">      1.00000000</i>
  </separator>
  <separator name="ionic md" >
   <i name="TEBEG">      0.00010000</i>
   <i name="TEEND">      0.00010000</i>
   <i type="int" name="NBLOCK">     1</i>
   <i type="int" name="KBLOCK">   200</i>
   <i type="int" name="NPACO">   256</i>
   <i name="APACO">     16.00000000</i>
  </separator>
  <separator name="symmetry" >
   <i type="int" name="ISYM">     2</i>
   <i name="SYMPREC">      0.00001000</i>
  </separator>
  <separator name="dos" >
   <i type="int" name="LORBIT">     0</i>
   <v name="RWIGS">     -1.00000000     -1.00000000</v>
   <i type="int" name="NEDOS">   301</i>
   <i name="EMIN">     10.00000000</i>
   <i name="EMAX">    -10.00000000</i>
   <i name="EFERMI">      0.00000000</i>
  </separator>
  <separator name="writing" >
   <i type="int" name="NWRITE">     0</i>
   <i type="logical" name="LWAVE"> F  </i>
   <i type="logical" name="LDOWNSAMPLE"> F  </i>
   <i type="logical" name="LCHARG"> F  </i>
   <i type="logical" name="LPARD"> F  </i>
   <i type="logical" name="LVTOT"> F  </i>
   <i type="logical" name="LVHAR"> F  </i>
   <i type="logical" name="LELF"> F  </i>
   <i type="logical" name="LOPTICS"> F  </i>
   <v name="STM">      0.00000000      0.00000000      0.00000000      0.00000000      0.00000000      0.00000000      0.00000000</v>
  </separator>
  <separator name="performance" >
   <i type="int" name="NPAR">    12</i>
   <i type="int" name="NSIM">     4</i>
   <i type="int" name="NBLK">    -1</i>
   <i type="logical" name="LPLANE"> T  </i>
   <i type="logical" name="LSCALAPACK"> T  </i>
   <i type="logical" name="LSCAAWARE"> F  </i>
   <i type="logical" name="LSCALU"> F  </i>
   <i type="logical" name="LASYNC"> F  </i>
   <i type="logical" name="LORBITALREAL"> F  </i>
  </separator>
  <separator name="miscellaneous" >
   <i type="int" name="IDIOT">     3</i>
   <i type="int" name="ISPECIAL">     0</i>
   <i type="logical" name="LMUSIC"> F  </i>
   <v name="POMASS">    114.82000000    106.42000000</v>
   <v name="DARWINR">      0.00000000      0.00000000</v>
   <v name="DARWINV">      1.00000000      1.00000000</v>
   <i type="logical" name="LCORR"> T  </i>
  </separator>
  <i type="logical" name="GGA_COMPAT"> T  </i>
  <i type="logical" name="LBERRY"> F  </i>
  <i type="int" name="ICORELEVEL">     0</i>
  <i type="logical" name="LDAU"> F  </i>
  <i type="int" name="I_CONSTRAINED_M">     0</i>
  <separator name="electronic exchange-correlation" >
   <i type="string" name="GGA">PE</i>
   <i type="int" name="VOSKOWN">     0</i>
   <i type="logical" name="LHFCALC"> F  </i>
   <i type="string" name="PRECFOCK"></i>
   <i type="logical" name="LSYMGRAD"> F  </i>
   <i type="logical" name="LHFONE"> F  </i>
   <i type="logical" name="LRHFCALC"> F  </i>
   <i type="logical" name="LTHOMAS"> F  </i>
   <i type="logical" name="LMODELHF"> F  </i>
   <i name="ENCUT4O">     -1.00000000</i>
   <i type="int" name="EXXOEP">     0</i>
   <i type="int" name="FOURORBIT">     0</i>
   <i name="AEXX">      0.00000000</i>
   <i name="HFALPHA">      0.00000000</i>
   <i name="MCALPHA">      0.00000000</i>
   <i name="ALDAX">      1.00000000</i>
   <i name="AGGAX">      1.00000000</i>
   <i name="ALDAC">      1.00000000</i>
   <i name="AGGAC">      1.00000000</i>
   <i type="int" name="NKREDX">     1</i>
   <i type="int" name="NKREDY">     1</i>
   <i type="int" name="NKREDZ">     1</i>
   <i type="logical" name="SHIFTRED"> F  </i>
   <i type="logical" name="ODDONLY"> F  </i>
   <i type="logical" name="EVENONLY"> F  </i>
   <i type="int" name="LMAXFOCK">     0</i>
   <i type="int" name="NMAXFOCKAE">     0</i>
   <i type="logical" name="LFOCKAEDFT"> F  </i>
   <i name="HFSCREEN">      0.00000000</i>
   <i name="HFSCREENC">      0.00000000</i>
   <i type="int" name="NBANDSGWLOW">     0</i>
  </separator>
  <separator name="vdW DFT" >
   <i type="logical" name="LUSE_VDW"> F  </i>
   <i name="Zab_VDW">     -0.84910000</i>
   <i name="PARAM1">      0.12340000</i>
   <i name="PARAM2">      1.00000000</i>
   <i name="PARAM3">      0.00000000</i>
  </separator>
  <separator name="model GW" >
   <i type="int" name="MODEL_GW">     0</i>
   <i name="MODEL_EPS0">     26.59293852</i>
   <i name="MODEL_ALPHA">      1.00000000</i>
  </separator>
  <separator name="linear response parameters" >
   <i type="logical" name="LEPSILON"> F  </i>
   <i type="logical" name="LRPA"> F  </i>
   <i type="logical" name="LNABLA"> F  </i>
   <i type="logical" name="LVEL"> F  </i>
   <i type="int" name="KINTER">     0</i>
   <i name="CSHIFT">      0.10000000</i>
   <i name="OMEGAMAX">     -1.00000000</i>
   <i name="DEG_THRESHOLD">      0.00200000</i>
   <i name="RTIME">     -0.10000000</i>
   <i name="WPLASMAI">      0.00000000</i>
   <v name="DFIELD">      0.00000000      0.00000000      0.00000000</v>
   <v name="WPLASMA">      0.00000000      0.00000000      0.00000000      0.00000000      0.00000000      0.00000000      0.00000000      0.00000000      0.00000000</v>
  </separator>
  <separator name="orbital magnetization" >
   <i type="logical" name="NUCIND"> F  </i>
   <v name="MAGPOS">      0.00000000      0.00000000      0.00000000</v>
   <i type="logical" name="LNICSALL"> T  </i>
   <i type="logical" name="ORBITALMAG"> F  </i>
   <i type="logical" name="LMAGBLOCH"> F  </i>
   <i type="logical" name="LCHIMAG"> F  </i>
   <i type="logical" name="LGAUGE"> T  </i>
   <i type="int" name="MAGATOM">     0</i>
   <v name="MAGDIPOL">      0.00000000      0.00000000      0.00000000</v>
   <v name="AVECCONST">      0.00000000      0.00000000      0.00000000</v>
  </separator>
  <separator name="response functions" >
   <i type="logical" name="LADDER"> F  </i>
   <i type="logical" name="LRPAFORCE"> F  </i>
   <i type="logical" name="LFXC"> F  </i>
   <i type="logical" name="LHARTREE"> T  </i>
   <i type="int" name="IBSE">     0</i>
   <v type="int" name="KPOINT">    -1     0     0     0</v>
   <i type="logical" name="LTCTE"> F  </i>
   <i type="logical" name="LTETE"> F  </i>
   <i type="logical" name="LTRIPLET"> F  </i>
   <i type="logical" name="LFXCEPS"> F  </i>
   <i type="logical" name="LFXHEG"> F  </i>
   <i type="int" name="NATURALO">     2</i>
   <i type="logical" name="L2ORDER"> F  </i>
   <i type="logical" name="LMP2LT"> F  </i>
   <i type="logical" name="LUSEW"> F  </i>
   <i name="ENCUTGW">     -2.00000000</i>
   <i name="ENCUTGWSOFT">     -2.00000000</i>
   <i name="ENCUTLF">     -1.00000000</i>
   <i type="int" name="LMAXMP2">    -1</i>
   <i name="SCISSOR">      0.00000000</i>
   <i type="int" name="NOMEGA">     0</i>
   <i type="int" name="NOMEGAR">     0</i>
   <i type="int" name="NBANDSGW">    -1</i>
   <i type="int" name="NBANDSO">    -1</i>
   <i type="int" name="NBANDSV">    -1</i>
   <i type="int" name="NELM">   100</i>
   <i type="int" name="NELMHF">     1</i>
   <i type="int" name="DIM">     3</i>
   <i type="int" name="ANTIRES">     0</i>
   <i name="OMEGAMAX">    -30.00000000</i>
   <i name="OMEGAMIN">    -30.00000000</i>
   <i name="OMEGATL">   -200.00000000</i>
   <i type="int" name="OMEGAGRID">   140</i>
   <i name="CSHIFT">     -0.10000000</i>
   <i type="logical" name="SELFENERGY"> F  </i>
   <i type="logical" name="LSPECTRAL"> F  </i>
   <i type="logical" name="LSPECTRALGW"> F  </i>
   <i type="logical" name="LSINGLES"> F  </i>
   <i type="logical" name="LFERMIGW"> F  </i>
   <i type="logical" name="ODDONLYGW"> F  </i>
   <i type="logical" name="EVENONLYGW"> F  </i>
   <i type="int" name="NKREDLFX">     1</i>
   <i type="int" name="NKREDLFY">     1</i>
   <i type="int" name="NKREDLFZ">     1</i>
   <i type="int" name="MAXMEM">  2800</i>
   <i type="int" name="TELESCOPE">     0</i>
   <i type="int" name="TAUPAR">     1</i>
   <i type="int" name="OMEGAPAR">    -1</i>
   <i name="LAMBDA">      1.00000000</i>
  </separator>
  <separator name="External order field" >
   <i name="OFIELD_KAPPA">      0.00000000</i>
   <v name="OFIELD_K">      0.00000000      0.00000000      0.00000000</v>
   <i name="OFIELD_Q6_NEAR">      0.00000000</i>
   <i name="OFIELD_Q6_FAR">      0.00000000</i>
   <i name="OFIELD_A">      0.00000000</i>
  </separator>
 </parameters>
 <atominfo>
  <atoms>      24 </atoms>
  <types>       2 </types>
  <array name="atoms" >
   <dimension dim="1">ion</dimension>
   <field type="string">element</field>
   <field type="int">atomtype</field>
   <set>
    <rc><c>In</c><c>   1</c></rc>
    <rc><c>In</c><c>   1</c></rc>
    <rc><c>In</c><c>   1</c></rc>
    <rc><c>In</c><c>   1</c></rc>
    <rc><c>In</c><c>   1</c></rc>
    <rc><c>In</c><c>   1</c></rc>
    <rc><c>In</c><c>   1</c></rc>
    <rc><c>In</c><c>   1</c></rc>
    <rc><c>Pd</c><c>   2</c></rc>
    <rc><c>Pd</c><c>   2</c></rc>
    <rc><c>Pd</c><c>   2</c></rc>
    <rc><c>Pd</c><c>   2</c></rc>
    <rc><c>Pd</c><c>   2</c></rc>
    <rc><c>Pd</c><c>   2</c></rc>
    <rc><c>Pd</c><c>   2</c></rc>
    <rc><c>Pd</c><c>   2</c></rc>
    <rc><c>Pd</c><c>   2</c></rc>
    <rc><c>Pd</c><c>   2</c></rc>
    <rc><c>Pd</c><c>   2</c></rc>
    <rc><c>Pd</c><c>   2</c></rc>
    <rc><c>Pd</c><c>   2</c></rc>
    <rc><c>Pd</c><c>   2</c></rc>
    <rc><c>Pd</c><c>   2</c></rc>
    <rc><c>Pd</c><c>   2</c></rc>
   </set>
  </array>
  <array name="atomtypes" >
   <dimension dim="1">type</dimension>
   <field type="int">atomspertype</field>
   <field type="string">element</field>
   <field>mass</field>
   <field>valence</field>
   <field type="string">pseudopotential</field>
   <set>
    <rc><c>   8</c><c>In</c><c>    114.82000000</c><c>      3.00000000</c><c>  PAW_PBE In 08Apr2002                  </c></rc>
    <rc><c>  16</c><c>Pd</c><c>    106.42000000</c><c>     10.00000000</c><c>  PAW_PBE Pd 04Jan2005                  </c></rc>
   </set>
  </array>
 </atominfo>
 <structure name="initialpos" >
  <crystal>
   <varray name="basis" >
    <v>       8.47799969       0.00000000       0.00000000 </v>
    <v>       0.00000000       8.39290047       0.00000000 </v>
    <v>       0.00000000       0.00000000      14.94929981 </v>
   </varray>
   <i name="volume">   1063.71754076 </i>
   <varray name="rec_basis" >
    <v>       0.11795235       0.00000000       0.00000000 </v>
    <v>       0.00000000       0.11914832       0.00000000 </v>
    <v>       0.00000000       0.00000000       0.06689277 </v>
   </varray>
  </crystal>
  <varray name="positions" >
   <v>       0.37500000       0.60020000       0.04243000 </v>
   <v>       0.12500000       0.10024000       0.09735000 </v>
   <v>       0.37500000       0.89911997       0.23379999 </v>
   <v>       0.12500000       0.39886001       0.28895000 </v>
   <v>       0.87500000       0.60020000       0.04243000 </v>
   <v>       0.62500000       0.10024000       0.09735000 </v>
   <v>       0.87500000       0.89911997       0.23379999 </v>
   <v>       0.62500000       0.39886001       0.28895000 </v>
   <v>       0.37500000       0.26927999       0.00000000 </v>
   <v>       0.37500000       0.92720002       0.03439000 </v>
   <v>       0.12500000       0.42734000       0.10539000 </v>
   <v>       0.12500000       0.76925999       0.13970999 </v>
   <v>       0.37500000       0.23010001       0.19152001 </v>
   <v>       0.37500000       0.57201999       0.22599000 </v>
   <v>       0.12500000       0.07196000       0.29675999 </v>
   <v>       0.12500000       0.72987998       0.33107001 </v>
   <v>       0.87500000       0.26927999       0.00000000 </v>
   <v>       0.87500000       0.92720002       0.03439000 </v>
   <v>       0.62500000       0.42734000       0.10539000 </v>
   <v>       0.62500000       0.76925999       0.13970999 </v>
   <v>       0.87500000       0.23010001       0.19152001 </v>
   <v>       0.87500000       0.57201999       0.22599000 </v>
   <v>       0.62500000       0.07196000       0.29675999 </v>
   <v>       0.62500000       0.72987998       0.33107001 </v>
  </varray>
  <varray name="selective"  type="logical" >
   <v type="logical" >  F  F  F </v>
   <v type="logical" >  F  F  F </v>
   <v type="logical" >  T  T  T </v>
   <v type="logical" >  T  T  T </v>
   <v type="logical" >  F  F  F </v>
   <v type="logical" >  F  F  F </v>
   <v type="logical" >  T  T  T </v>
   <v type="logical" >  T  T  T </v>
   <v type="logical" >  F  F  F </v>
   <v type="logical" >  F  F  F </v>
   <v type="logical" >  F  F  F </v>
   <v type="logical" >  F  F  F </v>
   <v type="logical" >  T  T  T </v>
   <v type="logical" >  T  T  T </v>
   <v type="logical" >  T  T  T </v>
   <v type="logical" >  T  T  T </v>
   <v type="logical" >  F  F  F </v>
   <v type="logical" >  F  F  F </v>
   <v type="logical" >  F  F  F </v>
   <v type="logical" >  F  F  F </v>
   <v type="logical" >  T  T  T </v>
   <v type="logical" >  T  T  T </v>
   <v type="logical" >  T  T  T </v>
   <v type="logical" >  T  T  T </v>
  </varray>
  <nose>
   <v>      -3.00000000       0.00000000       0.00010000       0.00010000 </v>
  </nose>
 </structure>
 <calculation>
  <scstep>
   <time name="dav">   13.31   13.34</time>
   <time name="total">   13.51   13.54</time>
   <dipole>
    <v name="dipole">      0.00000000       0.00000000      -0.00102808 </v>
    <i name="Tr[quadrupol]">  -2015.94773653 </i>
    <i name="Echarged">      0.00000000 </i>
    <i name="Edipol_quadrupol">      0.00000000 </i>
    <i name="Eion">      0.00000000 </i>
   </dipole>
   <energy>
    <i name="alphaZ">    178.92873924 </i>
    <i name="ewald">   8807.69689948 </i>
    <i name="hartreedc"> -22485.32437829 </i>
    <i name="XCdc">   -922.86208649 </i>
    <i name="pawpsdc">  13661.59498581 </i>
    <i name="pawaedc"> -12191.00304961 </i>
    <i name="eentropy">     -0.00564861 </i>
    <i name="bandstr">    595.34569617 </i>
    <i name="atom">  13386.29214936 </i>
    <i name="e_fr_energy">   1030.66330705 </i>
    <i name="e_wo_entrp">   1030.66895567 </i>
    <i name="e_0_energy">   1030.66613136 </i>
   </energy>
  </scstep>
  <scstep>
   <time name="dav">   15.04   15.08</time>
   <time name="total">   15.04   15.08</time>
   <dipole>
    <v name="dipole">      0.00000000       0.00000000      -0.00102808 </v>
    <i name="Tr[quadrupol]">  -2015.94773653 </i>
    <i name="Echarged">      0.00000000 </i>
    <i name="Edipol_quadrupol">      0.00000000 </i>
    <i name="Eion">      0.00000000 </i>
   </dipole>
   <energy>
    <i name="e_fr_energy">    -31.81454711 </i>
    <i name="e_wo_entrp">    -31.80609253 </i>
    <i name="e_0_energy">    -31.81031982 </i>
   </energy>
  </scstep>
  <scstep>
   <time name="dav">   15.21   15.25</time>
   <time name="total">   15.21   15.25</time>
   <dipole>
    <v name="dipole">      0.00000000       0.00000000      -0.00102808 </v>
    <i name="Tr[quadrupol]">  -2015.94773653 </i>
    <i name="Echarged">      0.00000000 </i>
    <i name="Edipol_quadrupol">      0.00000000 </i>
    <i name="Eion">      0.00000000 </i>
   </dipole>
   <energy>
    <i name="e_fr_energy">   -107.53511738 </i>
    <i name="e_wo_entrp">   -107.52701635 </i>
    <i name="e_0_energy">   -107.53106687 </i>
   </energy>
  </scstep>
  <scstep>
   <time name="dav">   15.47   15.50</time>
   <time name="total">   15.47   15.51</time>
   <dipole>
    <v name="dipole">      0.00000000       0.00000000      -0.00102808 </v>
    <i name="Tr[quadrupol]">  -2015.94773653 </i>
    <i name="Echarged">      0.00000000 </i>
    <i name="Edipol_quadrupol">      0.00000000 </i>
    <i name="Eion">      0.00000000 </i>
   </dipole>
   <energy>
    <i name="e_fr_energy">   -109.62142394 </i>
    <i name="e_wo_entrp">   -109.61189299 </i>
    <i name="e_0_energy">   -109.61665847 </i>
   </energy>
  </scstep>
  <scstep>
   <time name="dav">   15.63   15.67</time>
   <time name="total">   15.63   15.67</time>
   <dipole>
    <v name="dipole">      0.00000000       0.00000000      -0.00102808 </v>
    <i name="Tr[quadrupol]">  -2015.94773653 </i>
    <i name="Echarged">      0.00000000 </i>
    <i name="Edipol_quadrupol">      0.00000000 </i>
    <i name="Eion">      0.00000000 </i>
   </dipole>
   <energy>
    <i name="e_fr_energy">   -109.68699961 </i>
    <i name="e_wo_entrp">   -109.67743770 </i>
    <i name="e_0_energy">   -109.68221865 </i>
   </energy>
  </scstep>
  <scstep>
   <time name="dav">   16.96   16.99</time>
   <time name="total">   16.96   17.00</time>
   <dipole>
    <v name="dipole">      0.00000000       0.00000000      -0.00102808 </v>
    <i name="Tr[quadrupol]">  -2015.94773653 </i>
    <i name="Echarged">      0.00000000 </i>
    <i name="Edipol_quadrupol">      0.00000000 </i>
    <i name="Eion">      0.00000000 </i>
   </dipole>
   <energy>
    <i name="e_fr_energy">   -109.69061383 </i>
    <i name="e_wo_entrp">   -109.68105003 </i>
    <i name="e_0_energy">   -109.68583193 </i>
   </energy>
  </scstep>
  <scstep>
   <time name="dav">   15.85   15.89</time>
   <time name="total">   16.55   16.59</time>
   <dipole>
    <v name="dipole">      0.00000000       0.00000000      -0.00102808 </v>
    <i name="Tr[quadrupol]">  -2015.94773653 </i>
    <i name="Echarged">      0.00000000 </i>
    <i name="Edipol_quadrupol">      0.00000000 </i>
    <i name="Eion">      0.00000000 </i>
   </dipole>
   <energy>
    <i name="e_fr_energy">   -109.69073190 </i>
    <i name="e_wo_entrp">   -109.68116803 </i>
    <i name="e_0_energy">   -109.68594996 </i>
   </energy>
  </scstep>
  <scstep>
   <time name="diag">    2.37    2.37</time>
   <time name="diis">    8.21    8.23</time>
   <time name="orth">    0.49    0.49</time>
   <time name="total">   11.93   11.96</time>
   <dipole>
    <v name="dipole">      0.00000000       0.00000000      -0.00039096 </v>
    <i name="Tr[quadrupol]">  -2016.28505789 </i>
    <i name="Echarged">      0.00000000 </i>
    <i name="Edipol_quadrupol">      0.00000000 </i>
    <i name="Eion">      0.00000000 </i>
   </dipole>
   <energy>
    <i name="e_fr_energy">   -109.24144897 </i>
    <i name="e_wo_entrp">   -109.23160296 </i>
    <i name="e_0_energy">   -109.23652596 </i>
   </energy>
  </scstep>
  <scstep>
   <time name="diag">    2.37    2.38</time>
   <time name="diis">    8.13    8.15</time>
   <time name="orth">    0.50    0.50</time>
   <time name="total">   11.86   11.88</time>
   <dipole>
    <v name="dipole">      0.00000000       0.00000000       0.03670250 </v>
    <i name="Tr[quadrupol]">  -2019.40214162 </i>
    <i name="Echarged">      0.00000000 </i>
    <i name="Edipol_quadrupol">      0.00000000 </i>
    <i name="Eion">      0.00000000 </i>
   </dipole>
   <energy>
    <i name="e_fr_energy">   -106.52701728 </i>
    <i name="e_wo_entrp">   -106.51530390 </i>
    <i name="e_0_energy">   -106.52116059 </i>
   </energy>
  </scstep>
  <scstep>
   <time name="diag">    2.36    2.37</time>
   <time name="diis">    7.97    7.99</time>
   <time name="orth">    0.49    0.49</time>
   <time name="total">   11.69   11.71</time>
   <dipole>
    <v name="dipole">      0.00000000       0.00000000      -0.03227095 </v>
    <i name="Tr[quadrupol]">  -2020.20701689 </i>
    <i name="Echarged">      0.00000000 </i>
    <i name="Edipol_quadrupol">      0.00000000 </i>
    <i name="Eion">      0.00000000 </i>
   </dipole>
   <energy>
    <i name="e_fr_energy">   -106.15152702 </i>
    <i name="e_wo_entrp">   -106.13842828 </i>
    <i name="e_0_energy">   -106.14497765 </i>
   </energy>
  </scstep>
  <scstep>
   <time name="diag">    2.37    2.38</time>
   <time name="diis">    8.02    8.04</time>
   <time name="orth">    0.49    0.49</time>
   <time name="total">   11.74   11.77</time>
   <dipole>
    <v name="dipole">      0.00000000       0.00000000      -0.09684728 </v>
    <i name="Tr[quadrupol]">  -2021.35069854 </i>
    <i name="Echarged">      0.00000000 </i>
    <i name="Edipol_quadrupol">      0.00000000 </i>
    <i name="Eion">      0.00000000 </i>
   </dipole>
   <energy>
    <i name="e_fr_energy">   -105.78639053 </i>
    <i name="e_wo_entrp">   -105.77175756 </i>
    <i name="e_0_energy">   -105.77907405 </i>
   </energy>
  </scstep>
  <scstep>
   <time name="diag">    2.36    2.37</time>
   <time name="diis">    7.99    8.01</time>
   <time name="orth">    0.49    0.49</time>
   <time name="total">   11.70   11.73</time>
   <dipole>
    <v name="dipole">      0.00000000       0.00000000       0.01993645 </v>
    <i name="Tr[quadrupol]">  -2021.89592701 </i>
    <i name="Echarged">      0.00000000 </i>
    <i name="Edipol_quadrupol">      0.00000000 </i>
    <i name="Eion">      0.00000000 </i>
   </dipole>
   <energy>
    <i name="e_fr_energy">   -105.67309485 </i>
    <i name="e_wo_entrp">   -105.65899521 </i>
    <i name="e_0_energy">   -105.66604503 </i>
   </energy>
  </scstep>
  <scstep>
   <time name="diag">    2.35    2.36</time>
   <time name="diis">    8.12    8.14</time>
   <time name="orth">    0.49    0.49</time>
   <time name="total">   11.83   11.85</time>
   <dipole>
    <v name="dipole">      0.00000000       0.00000000       0.07194065 </v>
    <i name="Tr[quadrupol]">  -2022.29981043 </i>
    <i name="Echarged">      0.00000000 </i>
    <i name="Edipol_quadrupol">      0.00000000 </i>
    <i name="Eion">      0.00000000 </i>
   </dipole>
   <energy>
    <i name="e_fr_energy">   -105.61648471 </i>
    <i name="e_wo_entrp">   -105.60320193 </i>
    <i name="e_0_energy">   -105.60984332 </i>
   </energy>
  </scstep>
  <scstep>
   <time name="diag">    2.34    2.35</time>
   <time name="diis">    8.20    8.22</time>
   <time name="orth">    0.50    0.50</time>
   <time name="total">   11.91   11.93</time>
   <dipole>
    <v name="dipole">      0.00000000       0.00000000      -0.12972873 </v>
    <i name="Tr[quadrupol]">  -2023.12094712 </i>
    <i name="Echarged">      0.00000000 </i>
    <i name="Edipol_quadrupol">      0.00000000 </i>
    <i name="Eion">      0.00000000 </i>
   </dipole>
   <energy>
    <i name="e_fr_energy">   -105.60423488 </i>
    <i name="e_wo_entrp">   -105.59330026 </i>
    <i name="e_0_energy">   -105.59876757 </i>
   </energy>
  </scstep>
  <scstep>
   <time name="diag">    2.34    2.35</time>
   <time name="diis">    8.20    8.21</time>
   <time name="orth">    0.50    0.50</time>
   <time name="total">   11.91   11.94</time>
   <dipole>
    <v name="dipole">      0.00000000       0.00000000       0.05984086 </v>
    <i name="Tr[quadrupol]">  -2023.43498375 </i>
    <i name="Echarged">      0.00000000 </i>
    <i name="Edipol_quadrupol">      0.00000000 </i>
    <i name="Eion">      0.00000000 </i>
   </dipole>
   <energy>
    <i name="e_fr_energy">   -105.51472378 </i>
    <i name="e_wo_entrp">   -105.50285256 </i>
    <i name="e_0_energy">   -105.50878817 </i>
   </energy>
  </scstep>
  <scstep>
   <time name="diag">    2.35    2.36</time>
   <time name="diis">    8.07    8.09</time>
   <time name="orth">    0.49    0.49</time>
   <time name="total">   11.78   11.81</time>
   <dipole>
    <v name="dipole">      0.00000000       0.00000000       0.12663040 </v>
    <i name="Tr[quadrupol]">  -2023.52430080 </i>
    <i name="Echarged">      0.00000000 </i>
    <i name="Edipol_quadrupol">      0.00000000 </i>
    <i name="Eion">      0.00000000 </i>
   </dipole>
   <energy>
    <i name="e_fr_energy">   -105.52671211 </i>
    <i name="e_wo_entrp">   -105.51549990 </i>
    <i name="e_0_energy">   -105.52110600 </i>
   </energy>
  </scstep>
  <scstep>
   <time name="diag">    2.36    2.36</time>
   <time name="diis">    8.16    8.18</time>
   <time name="orth">    0.49    0.49</time>
   <time name="total">   11.87   11.90</time>
   <dipole>
    <v name="dipole">      0.00000000       0.00000000      -0.06952730 </v>
    <i name="Tr[quadrupol]">  -2023.94402630 </i>
    <i name="Echarged">      0.00000000 </i>
    <i name="Edipol_quadrupol">      0.00000000 </i>
    <i name="Eion">      0.00000000 </i>
   </dipole>
   <energy>
    <i name="e_fr_energy">   -105.51009760 </i>
    <i name="e_wo_entrp">   -105.49866063 </i>
    <i name="e_0_energy">   -105.50437911 </i>
   </energy>
  </scstep>
  <scstep>
   <time name="diag">    2.36    2.37</time>
   <time name="diis">    8.01    8.03</time>
   <time name="orth">    0.50    0.50</time>
   <time name="total">   11.75   11.78</time>
   <dipole>
    <v name="dipole">      0.00000000       0.00000000      -0.12080845 </v>
    <i name="Tr[quadrupol]">  -2024.04113086 </i>
    <i name="Echarged">      0.00000000 </i>
    <i name="Edipol_quadrupol">      0.00000000 </i>
    <i name="Eion">      0.00000000 </i>
   </dipole>
   <energy>
    <i name="e_fr_energy">   -105.52087813 </i>
    <i name="e_wo_entrp">   -105.50964661 </i>
    <i name="e_0_energy">   -105.51526237 </i>
   </energy>
  </scstep>
  <scstep>
   <time name="diag">    2.35    2.36</time>
   <time name="diis">    8.07    8.09</time>
   <time name="orth">    0.49    0.49</time>
   <time name="total">   11.80   11.83</time>
   <dipole>
    <v name="dipole">      0.00000000       0.00000000       0.02782933 </v>
    <i name="Tr[quadrupol]">  -2024.53693216 </i>
    <i name="Echarged">      0.00000000 </i>
    <i name="Edipol_quadrupol">      0.00000000 </i>
    <i name="Eion">      0.00000000 </i>
   </dipole>
   <energy>
    <i name="e_fr_energy">   -105.50096623 </i>
    <i name="e_wo_entrp">   -105.48970263 </i>
    <i name="e_0_energy">   -105.49533443 </i>
   </energy>
  </scstep>
  <scstep>
   <time name="diag">    2.36    2.37</time>
   <time name="diis">    7.93    7.95</time>
   <time name="orth">    0.50    0.50</time>
   <time name="total">   11.67   11.70</time>
   <dipole>
    <v name="dipole">      0.00000000       0.00000000       0.07897148 </v>
    <i name="Tr[quadrupol]">  -2024.55832858 </i>
    <i name="Echarged">      0.00000000 </i>
    <i name="Edipol_quadrupol">      0.00000000 </i>
    <i name="Eion">      0.00000000 </i>
   </dipole>
   <energy>
    <i name="e_fr_energy">   -105.50795592 </i>
    <i name="e_wo_entrp">   -105.49690863 </i>
    <i name="e_0_energy">   -105.50243227 </i>
   </energy>
  </scstep>
  <scstep>
   <time name="diag">    2.36    2.36</time>
   <time name="diis">    8.41    8.42</time>
   <time name="orth">    0.50    0.50</time>
   <time name="total">   12.14   12.17</time>
   <dipole>
    <v name="dipole">      0.00000000       0.00000000       0.09558593 </v>
    <i name="Tr[quadrupol]">  -2024.56024645 </i>
    <i name="Echarged">      0.00000000 </i>
    <i name="Edipol_quadrupol">      0.00000000 </i>
    <i name="Eion">      0.00000000 </i>
   </dipole>
   <energy>
    <i name="e_fr_energy">   -105.51073369 </i>
    <i name="e_wo_entrp">   -105.49970334 </i>
    <i name="e_0_energy">   -105.50521852 </i>
   </energy>
  </scstep>
  <scstep>
   <time name="diag">    2.36    2.37</time>
   <time name="diis">    7.98    8.00</time>
   <time name="orth">    0.49    0.49</time>
   <time name="total">   11.70   11.73</time>
   <dipole>
    <v name="dipole">      0.00000000       0.00000000      -0.07806226 </v>
    <i name="Tr[quadrupol]">  -2025.07926897 </i>
    <i name="Echarged">      0.00000000 </i>
    <i name="Edipol_quadrupol">      0.00000000 </i>
    <i name="Eion">      0.00000000 </i>
   </dipole>
   <energy>
    <i name="e_fr_energy">   -105.52356199 </i>
    <i name="e_wo_entrp">   -105.51309536 </i>
    <i name="e_0_energy">   -105.51832867 </i>
   </energy>
  </scstep>
  <scstep>
   <time name="diag">    2.36    2.37</time>
   <time name="diis">    8.17    8.19</time>
   <time name="orth">    0.49    0.49</time>
   <time name="total">   11.90   11.92</time>
   <dipole>
    <v name="dipole">      0.00000000       0.00000000      -0.04144482 </v>
    <i name="Tr[quadrupol]">  -2025.21539374 </i>
    <i name="Echarged">      0.00000000 </i>
    <i name="Edipol_quadrupol">      0.00000000 </i>
    <i name="Eion">      0.00000000 </i>
   </dipole>
   <energy>
    <i name="e_fr_energy">   -105.51623280 </i>
    <i name="e_wo_entrp">   -105.50584293 </i>
    <i name="e_0_energy">   -105.51103787 </i>
   </energy>
  </scstep>
  <scstep>
   <time name="diag">    2.35    2.35</time>
   <time name="diis">    8.18    8.20</time>
   <time name="orth">    0.50    0.50</time>
   <time name="total">   11.89   11.92</time>
   <dipole>
    <v name="dipole">      0.00000000       0.00000000      -0.07240230 </v>
    <i name="Tr[quadrupol]">  -2025.40995990 </i>
    <i name="Echarged">      0.00000000 </i>
    <i name="Edipol_quadrupol">      0.00000000 </i>
    <i name="Eion">      0.00000000 </i>
   </dipole>
   <energy>
    <i name="e_fr_energy">   -105.51815126 </i>
    <i name="e_wo_entrp">   -105.50815078 </i>
    <i name="e_0_energy">   -105.51315102 </i>
   </energy>
  </scstep>
  <scstep>
   <time name="diag">    2.35    2.35</time>
   <time name="diis">    8.08    8.10</time>
   <time name="orth">    0.50    0.50</time>
   <time name="total">   11.80   11.82</time>
   <dipole>
    <v name="dipole">      0.00000000       0.00000000      -0.07478866 </v>
    <i name="Tr[quadrupol]">  -2025.49395355 </i>
    <i name="Echarged">      0.00000000 </i>
    <i name="Edipol_quadrupol">      0.00000000 </i>
    <i name="Eion">      0.00000000 </i>
   </dipole>
   <energy>
    <i name="e_fr_energy">   -105.51333418 </i>
    <i name="e_wo_entrp">   -105.50330413 </i>
    <i name="e_0_energy">   -105.50831916 </i>
   </energy>
  </scstep>
  <scstep>
   <time name="diag">    2.36    2.36</time>
   <time name="diis">    7.94    7.95</time>
   <time name="orth">    0.49    0.49</time>
   <time name="total">   11.66   11.68</time>
   <dipole>
    <v name="dipole">      0.00000000       0.00000000      -0.00072783 </v>
    <i name="Tr[quadrupol]">  -2025.62146580 </i>
    <i name="Echarged">      0.00000000 </i>
    <i name="Edipol_quadrupol">      0.00000000 </i>
    <i name="Eion">      0.00000000 </i>
   </dipole>
   <energy>
    <i name="e_fr_energy">   -105.50668541 </i>
    <i name="e_wo_entrp">   -105.49669603 </i>
    <i name="e_0_energy">   -105.50169072 </i>
   </energy>
  </scstep>
  <scstep>
   <time name="diag">    2.36    2.36</time>
   <time name="diis">    7.96    7.98</time>
   <time name="orth">    0.50    0.50</time>
   <time name="total">   11.70   11.72</time>
   <dipole>
    <v name="dipole">      0.00000000       0.00000000      -0.00222876 </v>
    <i name="Tr[quadrupol]">  -2025.67548353 </i>
    <i name="Echarged">      0.00000000 </i>
    <i name="Edipol_quadrupol">      0.00000000 </i>
    <i name="Eion">      0.00000000 </i>
   </dipole>
   <energy>
    <i name="e_fr_energy">   -105.50830271 </i>
    <i name="e_wo_entrp">   -105.49832223 </i>
    <i name="e_0_energy">   -105.50331247 </i>
   </energy>
  </scstep>
  <scstep>
   <time name="diag">    2.35    2.36</time>
   <time name="diis">    8.06    8.08</time>
   <time name="orth">    0.49    0.49</time>
   <time name="total">   11.79   11.82</time>
   <dipole>
    <v name="dipole">      0.00000000       0.00000000       0.02048140 </v>
    <i name="Tr[quadrupol]">  -2025.81448541 </i>
    <i name="Echarged">      0.00000000 </i>
    <i name="Edipol_quadrupol">      0.00000000 </i>
    <i name="Eion">      0.00000000 </i>
   </dipole>
   <energy>
    <i name="e_fr_energy">   -105.51343331 </i>
    <i name="e_wo_entrp">   -105.50359167 </i>
    <i name="e_0_energy">   -105.50851249 </i>
   </energy>
  </scstep>
  <scstep>
   <time name="diag">    2.36    2.36</time>
   <time name="diis">    8.10    8.12</time>
   <time name="orth">    0.49    0.49</time>
   <time name="total">   11.83   11.86</time>
   <dipole>
    <v name="dipole">      0.00000000       0.00000000       0.02981849 </v>
    <i name="Tr[quadrupol]">  -2025.87905566 </i>
    <i name="Echarged">      0.00000000 </i>
    <i name="Edipol_quadrupol">      0.00000000 </i>
    <i name="Eion">      0.00000000 </i>
   </dipole>
   <energy>
    <i name="e_fr_energy">   -105.51426700 </i>
    <i name="e_wo_entrp">   -105.50447033 </i>
    <i name="e_0_energy">   -105.50936867 </i>
   </energy>
  </scstep>
  <scstep>
   <time name="diag">    2.35    2.36</time>
   <time name="diis">    8.08    8.10</time>
   <time name="orth">    0.50    0.50</time>
   <time name="total">   11.82   11.85</time>
   <dipole>
    <v name="dipole">      0.00000000       0.00000000       0.02434845 </v>
    <i name="Tr[quadrupol]">  -2025.89876309 </i>
    <i name="Echarged">      0.00000000 </i>
    <i name="Edipol_quadrupol">      0.00000000 </i>
    <i name="Eion">      0.00000000 </i>
   </dipole>
   <energy>
    <i name="e_fr_energy">   -105.51330169 </i>
    <i name="e_wo_entrp">   -105.50346212 </i>
    <i name="e_0_energy">   -105.50838191 </i>
   </energy>
  </scstep>
  <scstep>
   <time name="diag">    2.36    2.36</time>
   <time name="diis">    7.93    7.95</time>
   <time name="orth">    0.49    0.49</time>
   <time name="total">   11.68   11.71</time>
   <dipole>
    <v name="dipole">      0.00000000       0.00000000       0.00442791 </v>
    <i name="Tr[quadrupol]">  -2025.97131292 </i>
    <i name="Echarged">      0.00000000 </i>
    <i name="Edipol_quadrupol">      0.00000000 </i>
    <i name="Eion">      0.00000000 </i>
   </dipole>
   <energy>
    <i name="e_fr_energy">   -105.51120746 </i>
    <i name="e_wo_entrp">   -105.50130403 </i>
    <i name="e_0_energy">   -105.50625574 </i>
   </energy>
  </scstep>
  <scstep>
   <time name="diag">    2.35    2.36</time>
   <time name="diis">    7.93    7.94</time>
   <time name="orth">    0.50    0.50</time>
   <time name="total">   11.66   11.68</time>
   <dipole>
    <v name="dipole">      0.00000000       0.00000000      -0.00021909 </v>
    <i name="Tr[quadrupol]">  -2026.00372844 </i>
    <i name="Echarged">      0.00000000 </i>
    <i name="Edipol_quadrupol">      0.00000000 </i>
    <i name="Eion">      0.00000000 </i>
   </dipole>
   <energy>
    <i name="e_fr_energy">   -105.51120965 </i>
    <i name="e_wo_entrp">   -105.50131935 </i>
    <i name="e_0_energy">   -105.50626450 </i>
   </energy>
  </scstep>
  <scstep>
   <time name="diag">    2.35    2.35</time>
   <time name="diis">    7.95    7.96</time>
   <time name="orth">    0.49    0.49</time>
   <time name="total">   11.68   11.71</time>
   <dipole>
    <v name="dipole">      0.00000000       0.00000000      -0.00373406 </v>
    <i name="Tr[quadrupol]">  -2026.04831485 </i>
    <i name="Echarged">      0.00000000 </i>
    <i name="Edipol_quadrupol">      0.00000000 </i>
    <i name="Eion">      0.00000000 </i>
   </dipole>
   <energy>
    <i name="e_fr_energy">   -105.51125468 </i>
    <i name="e_wo_entrp">   -105.50137080 </i>
    <i name="e_0_energy">   -105.50631274 </i>
   </energy>
  </scstep>
  <scstep>
   <time name="diag">    2.36    2.36</time>
   <time name="diis">    5.46    5.47</time>
   <time name="orth">    0.49    0.49</time>
   <time name="total">    9.20    9.22</time>
   <dipole>
    <v name="dipole">      0.00000000       0.00000000      -0.00407189 </v>
    <i name="Tr[quadrupol]">  -2026.07720054 </i>
    <i name="Echarged">      0.00000000 </i>
    <i name="Edipol_quadrupol">      0.00000000 </i>
    <i name="Eion">      0.00000000 </i>
   </dipole>
   <energy>
    <i name="e_fr_energy">   -105.51117706 </i>
    <i name="e_wo_entrp">   -105.50129485 </i>
    <i name="e_0_energy">   -105.50623595 </i>
   </energy>
  </scstep>
  <scstep>
   <time name="diag">    2.36    2.36</time>
   <time name="diis">    6.77    6.78</time>
   <time name="orth">    0.49    0.50</time>
   <time name="total">   10.51   10.54</time>
   <dipole>
    <v name="dipole">      0.00000000       0.00000000      -0.01533730 </v>
    <i name="Tr[quadrupol]">  -2026.14022499 </i>
    <i name="Echarged">      0.00000000 </i>
    <i name="Edipol_quadrupol">      0.00000000 </i>
    <i name="Eion">      0.00000000 </i>
   </dipole>
   <energy>
    <i name="e_fr_energy">   -105.51109076 </i>
    <i name="e_wo_entrp">   -105.50121901 </i>
    <i name="e_0_energy">   -105.50615488 </i>
   </energy>
  </scstep>
  <scstep>
   <time name="diag">    2.35    2.36</time>
   <time name="diis">    5.02    5.03</time>
   <time name="orth">    0.50    0.50</time>
   <time name="total">    8.76    8.79</time>
   <dipole>
    <v name="dipole">      0.00000000       0.00000000      -0.01916637 </v>
    <i name="Tr[quadrupol]">  -2026.14678601 </i>
    <i name="Echarged">      0.00000000 </i>
    <i name="Edipol_quadrupol">      0.00000000 </i>
    <i name="Eion">      0.00000000 </i>
   </dipole>
   <energy>
    <i name="e_fr_energy">   -105.51119260 </i>
    <i name="e_wo_entrp">   -105.50131457 </i>
    <i name="e_0_energy">   -105.50625358 </i>
   </energy>
  </scstep>
  <scstep>
   <time name="diag">    2.36    2.37</time>
   <time name="diis">    5.52    5.53</time>
   <time name="orth">    0.50    0.50</time>
   <time name="total">    8.56    8.58</time>
   <dipole>
    <v name="dipole">      0.00000000       0.00000000      -0.01825144 </v>
    <i name="Tr[quadrupol]">  -2026.17416782 </i>
    <i name="Echarged">      0.00000000 </i>
    <i name="Edipol_quadrupol">      0.00000000 </i>
    <i name="Eion">      0.00000000 </i>
   </dipole>
   <energy>
    <i name="alphaZ">    179.16757861 </i>
    <i name="ewald">   8807.69689948 </i>
    <i name="hartreedc"> -22641.42219669 </i>
    <i name="XCdc">   -920.22398528 </i>
    <i name="pawpsdc">  16637.52720195 </i>
    <i name="pawaedc"> -15186.08391786 </i>
    <i name="eentropy">     -0.00989366 </i>
    <i name="bandstr">   -368.45502121 </i>
    <i name="atom">  13386.29214936 </i>
    <i name="e_fr_energy">   -105.51118530 </i>
    <i name="e_wo_entrp">   -105.50129164 </i>
    <i name="e_0_energy">   -105.50623847 </i>
   </energy>
  </scstep>
  <structure>
   <crystal>
    <varray name="basis" >
     <v>       8.47799969       0.00000000       0.00000000 </v>
     <v>       0.00000000       8.39290047       0.00000000 </v>
     <v>       0.00000000       0.00000000      14.94929981 </v>
    </varray>
    <i name="volume">   1063.71754076 </i>
    <varray name="rec_basis" >
     <v>       0.11795235       0.00000000       0.00000000 </v>
     <v>       0.00000000       0.11914832       0.00000000 </v>
     <v>       0.00000000       0.00000000       0.06689277 </v>
    </varray>
   </crystal>
   <varray name="positions" >
    <v>       0.37500000       0.60020000       0.04243000 </v>
    <v>       0.12500000       0.10024000       0.09735000 </v>
    <v>       0.37500000       0.89911997       0.23379999 </v>
    <v>       0.12500000       0.39886001       0.28895000 </v>
    <v>       0.87500000       0.60020000       0.04243000 </v>
    <v>       0.62500000       0.10024000       0.09735000 </v>
    <v>       0.87500000       0.89911997       0.23379999 </v>
    <v>       0.62500000       0.39886001       0.28895000 </v>
    <v>       0.37500000       0.26927999       0.00000000 </v>
    <v>       0.37500000       0.92720002       0.03439000 </v>
    <v>       0.12500000       0.42734000       0.10539000 </v>
    <v>       0.12500000       0.76925999       0.13970999 </v>
    <v>       0.37500000       0.23010001       0.19152001 </v>
    <v>       0.37500000       0.57201999       0.22599000 </v>
    <v>       0.12500000       0.07196000       0.29675999 </v>
    <v>       0.12500000       0.72987998       0.33107001 </v>
    <v>       0.87500000       0.26927999       0.00000000 </v>
    <v>       0.87500000       0.92720002       0.03439000 </v>
    <v>       0.62500000       0.42734000       0.10539000 </v>
    <v>       0.62500000       0.76925999       0.13970999 </v>
    <v>       0.87500000       0.23010001       0.19152001 </v>
    <v>       0.87500000       0.57201999       0.22599000 </v>
    <v>       0.62500000       0.07196000       0.29675999 </v>
    <v>       0.62500000       0.72987998       0.33107001 </v>
   </varray>
  </structure>
  <varray name="forces" >
   <v>      -0.00000000       0.04014990      -0.11644968 </v>
   <v>      -0.00000000       0.07923807      -0.60463700 </v>
   <v>      -0.00000000      -0.09944631       0.58832966 </v>
   <v>      -0.00000000      -0.00064689       0.12552717 </v>
   <v>      -0.00000000       0.04014990      -0.11644968 </v>
   <v>      -0.00000000       0.07923807      -0.60463700 </v>
   <v>      -0.00000000      -0.09944631       0.58832966 </v>
   <v>      -0.00000000      -0.00064689       0.12552717 </v>
   <v>       0.00000000       0.05122401       0.90838027 </v>
   <v>      -0.00000000       0.02329963       0.55559462 </v>
   <v>      -0.00000000      -0.08231245      -0.16599172 </v>
   <v>      -0.00000000      -0.16165052      -0.23583430 </v>
   <v>       0.00000000       0.16111510       0.21012832 </v>
   <v>      -0.00000000       0.07074914       0.16530308 </v>
   <v>      -0.00000000      -0.02190652      -0.54411803 </v>
   <v>       0.00000000      -0.05981316      -0.88623239 </v>
   <v>       0.00000000       0.05122401       0.90838027 </v>
   <v>      -0.00000000       0.02329963       0.55559462 </v>
   <v>      -0.00000000      -0.08231245      -0.16599172 </v>
   <v>      -0.00000000      -0.16165052      -0.23583430 </v>
   <v>       0.00000000       0.16111510       0.21012832 </v>
   <v>      -0.00000000       0.07074914       0.16530308 </v>
   <v>      -0.00000000      -0.02190652      -0.54411803 </v>
   <v>       0.00000000      -0.05981316      -0.88623239 </v>
  </varray>
  <varray name="stress" >
   <v>     -18.74009311       0.00000000       0.00000000 </v>
   <v>       0.00000000     -28.22901099      -0.88211035 </v>
   <v>       0.00000000      -0.88211034     -13.53136294 </v>
  </varray>
  <energy>
   <i name="e_fr_energy">   -105.51118530 </i>
   <i name="e_wo_entrp">   -105.50623847 </i>
   <i name="e_0_energy">     -0.00989366 </i>
  </energy>
  <time name="totalsc">  466.03  467.14</time>
 </calculation>
 <calculation>
  <scstep>
   <time name="dav">   13.65   13.69</time>
   <time name="total">   14.53   14.57</time>
   <dipole>
    <v name="dipole">      0.00000000       0.00000000      -0.01519469 </v>
    <i name="Tr[quadrupol]">  -2026.30422699 </i>
    <i name="Echarged">      0.00000000 </i>
    <i name="Edipol_quadrupol">      0.00000000 </i>
    <i name="Eion">      0.00000000 </i>
   </dipole>
   <energy>
    <i name="alphaZ">    179.12670126 </i>
    <i name="ewald">   8840.72302117 </i>
    <i name="hartreedc"> -22674.46190136 </i>
    <i name="XCdc">   -920.17534789 </i>
    <i name="pawpsdc">  16637.86150440 </i>
    <i name="pawaedc"> -15186.42152013 </i>
    <i name="eentropy">     -0.01011483 </i>
    <i name="bandstr">   -368.48536800 </i>
    <i name="atom">  13386.29214936 </i>
    <i name="e_fr_energy">   -105.55087602 </i>
    <i name="e_wo_entrp">   -105.54076119 </i>
    <i name="e_0_energy">   -105.54581860 </i>
   </energy>
  </scstep>
  <scstep>
   <time name="diag">    2.36    2.37</time>
   <time name="diis">    8.25    8.27</time>
   <time name="orth">    0.49    0.49</time>
   <time name="total">   11.96   11.99</time>
   <dipole>
    <v name="dipole">      0.00000000       0.00000000      -0.01506453 </v>
    <i name="Tr[quadrupol]">  -2026.30644702 </i>
    <i name="Echarged">      0.00000000 </i>
    <i name="Edipol_quadrupol">      0.00000000 </i>
    <i name="Eion">      0.00000000 </i>
   </dipole>
   <energy>
    <i name="e_fr_energy">   -105.55454265 </i>
    <i name="e_wo_entrp">   -105.54445075 </i>
    <i name="e_0_energy">   -105.54949670 </i>
   </energy>
  </scstep>
  <scstep>
   <time name="diag">    2.36    2.37</time>
   <time name="diis">   11.30   11.32</time>
   <time name="orth">    0.49    0.49</time>
   <time name="total">   15.01   15.05</time>
   <dipole>
    <v name="dipole">      0.00000000       0.00000000      -0.01466089 </v>
    <i name="Tr[quadrupol]">  -2026.30874354 </i>
    <i name="Echarged">      0.00000000 </i>
    <i name="Edipol_quadrupol">      0.00000000 </i>
    <i name="Eion">      0.00000000 </i>
   </dipole>
   <energy>
    <i name="e_fr_energy">   -105.55482577 </i>
    <i name="e_wo_entrp">   -105.54474573 </i>
    <i name="e_0_energy">   -105.54978575 </i>
   </energy>
  </scstep>
  <scstep>
   <time name="diag">    2.36    2.37</time>
   <time name="diis">    6.92    6.94</time>
   <time name="orth">    0.50    0.50</time>
   <time name="total">   10.64   10.67</time>
   <dipole>
    <v name="dipole">      0.00000000       0.00000000      -0.01359894 </v>
    <i name="Tr[quadrupol]">  -2026.31237544 </i>
    <i name="Echarged">      0.00000000 </i>
    <i name="Edipol_quadrupol">      0.00000000 </i>
    <i name="Eion">      0.00000000 </i>
   </dipole>
   <energy>
    <i name="e_fr_energy">   -105.55482176 </i>
    <i name="e_wo_entrp">   -105.54475684 </i>
    <i name="e_0_energy">   -105.54978930 </i>
   </energy>
  </scstep>
  <scstep>
   <time name="diag">    2.36    2.36</time>
   <time name="diis">    7.79    7.81</time>
   <time name="orth">    0.49    0.49</time>
   <time name="total">   11.50   11.53</time>
   <dipole>
    <v name="dipole">      0.00000000       0.00000000      -0.01178308 </v>
    <i name="Tr[quadrupol]">  -2026.31778738 </i>
    <i name="Echarged">      0.00000000 </i>
    <i name="Edipol_quadrupol">      0.00000000 </i>
    <i name="Eion">      0.00000000 </i>
   </dipole>
   <energy>
    <i name="e_fr_energy">   -105.55487614 </i>
    <i name="e_wo_entrp">   -105.54483274 </i>
    <i name="e_0_energy">   -105.54985444 </i>
   </energy>
  </scstep>
  <scstep>
   <time name="diag">    2.36    2.37</time>
   <time name="diis">    6.16    6.17</time>
   <time name="orth">    0.49    0.49</time>
   <time name="total">    9.87    9.89</time>
   <dipole>
    <v name="dipole">      0.00000000       0.00000000      -0.00994248 </v>
    <i name="Tr[quadrupol]">  -2026.32118326 </i>
    <i name="Echarged">      0.00000000 </i>
    <i name="Edipol_quadrupol">      0.00000000 </i>
    <i name="Eion">      0.00000000 </i>
   </dipole>
   <energy>
    <i name="e_fr_energy">   -105.55496330 </i>
    <i name="e_wo_entrp">   -105.54492555 </i>
    <i name="e_0_energy">   -105.54994443 </i>
   </energy>
  </scstep>
  <scstep>
   <time name="diag">    2.34    2.35</time>
   <time name="diis">    4.63    4.64</time>
   <time name="orth">    0.49    0.49</time>
   <time name="total">    8.33    8.35</time>
   <dipole>
    <v name="dipole">      0.00000000       0.00000000      -0.00964188 </v>
    <i name="Tr[quadrupol]">  -2026.32263337 </i>
    <i name="Echarged">      0.00000000 </i>
    <i name="Edipol_quadrupol">      0.00000000 </i>
    <i name="Eion">      0.00000000 </i>
   </dipole>
   <energy>
    <i name="e_fr_energy">   -105.55499252 </i>
    <i name="e_wo_entrp">   -105.54495885 </i>
    <i name="e_0_energy">   -105.54997569 </i>
   </energy>
  </scstep>
  <scstep>
   <time name="diag">    2.34    2.35</time>
   <time name="diis">    4.96    4.97</time>
   <time name="orth">    0.50    0.50</time>
   <time name="total">    8.67    8.69</time>
   <dipole>
    <v name="dipole">      0.00000000       0.00000000      -0.00587031 </v>
    <i name="Tr[quadrupol]">  -2026.32660115 </i>
    <i name="Echarged">      0.00000000 </i>
    <i name="Edipol_quadrupol">      0.00000000 </i>
    <i name="Eion">      0.00000000 </i>
   </dipole>
   <energy>
    <i name="e_fr_energy">   -105.55508071 </i>
    <i name="e_wo_entrp">   -105.54505625 </i>
    <i name="e_0_energy">   -105.55006848 </i>
   </energy>
  </scstep>
  <scstep>
   <time name="diag">    2.34    2.35</time>
   <time name="diis">    4.72    4.73</time>
   <time name="orth">    0.49    0.49</time>
   <time name="total">    8.42    8.44</time>
   <dipole>
    <v name="dipole">      0.00000000       0.00000000      -0.00587735 </v>
    <i name="Tr[quadrupol]">  -2026.32803337 </i>
    <i name="Echarged">      0.00000000 </i>
    <i name="Edipol_quadrupol">      0.00000000 </i>
    <i name="Eion">      0.00000000 </i>
   </dipole>
   <energy>
    <i name="e_fr_energy">   -105.55510297 </i>
    <i name="e_wo_entrp">   -105.54508201 </i>
    <i name="e_0_energy">   -105.55009249 </i>
   </energy>
  </scstep>
  <scstep>
   <time name="diag">    2.34    2.35</time>
   <time name="diis">    4.86    4.87</time>
   <time name="orth">    0.50    0.50</time>
   <time name="total">    8.56    8.58</time>
   <dipole>
    <v name="dipole">      0.00000000       0.00000000      -0.00572450 </v>
    <i name="Tr[quadrupol]">  -2026.33097062 </i>
    <i name="Echarged">      0.00000000 </i>
    <i name="Edipol_quadrupol">      0.00000000 </i>
    <i name="Eion">      0.00000000 </i>
   </dipole>
   <energy>
    <i name="e_fr_energy">   -105.55515224 </i>
    <i name="e_wo_entrp">   -105.54513667 </i>
    <i name="e_0_energy">   -105.55014446 </i>
   </energy>
  </scstep>
  <scstep>
   <time name="diag">    2.34    2.35</time>
   <time name="diis">    4.90    4.91</time>
   <time name="orth">    0.49    0.49</time>
   <time name="total">    8.61    8.63</time>
   <dipole>
    <v name="dipole">      0.00000000       0.00000000      -0.00308929 </v>
    <i name="Tr[quadrupol]">  -2026.33420679 </i>
    <i name="Echarged">      0.00000000 </i>
    <i name="Edipol_quadrupol">      0.00000000 </i>
    <i name="Eion">      0.00000000 </i>
   </dipole>
   <energy>
    <i name="e_fr_energy">   -105.55520959 </i>
    <i name="e_wo_entrp">   -105.54519616 </i>
    <i name="e_0_energy">   -105.55020288 </i>
   </energy>
  </scstep>
  <scstep>
   <time name="diag">    2.35    2.36</time>
   <time name="diis">    3.40    3.40</time>
   <time name="orth">    0.49    0.49</time>
   <time name="total">    7.11    7.13</time>
   <dipole>
    <v name="dipole">      0.00000000       0.00000000      -0.00317888 </v>
    <i name="Tr[quadrupol]">  -2026.33532922 </i>
    <i name="Echarged">      0.00000000 </i>
    <i name="Edipol_quadrupol">      0.00000000 </i>
    <i name="Eion">      0.00000000 </i>
   </dipole>
   <energy>
    <i name="e_fr_energy">   -105.55522407 </i>
    <i name="e_wo_entrp">   -105.54521158 </i>
    <i name="e_0_energy">   -105.55021782 </i>
   </energy>
  </scstep>
  <scstep>
   <time name="diag">    2.35    2.36</time>
   <time name="diis">    4.96    4.97</time>
   <time name="orth">    0.50    0.50</time>
   <time name="total">    8.69    8.71</time>
   <dipole>
    <v name="dipole">      0.00000000       0.00000000      -0.00145117 </v>
    <i name="Tr[quadrupol]">  -2026.34002034 </i>
    <i name="Echarged">      0.00000000 </i>
    <i name="Edipol_quadrupol">      0.00000000 </i>
    <i name="Eion">      0.00000000 </i>
   </dipole>
   <energy>
    <i name="e_fr_energy">   -105.55528428 </i>
    <i name="e_wo_entrp">   -105.54527335 </i>
    <i name="e_0_energy">   -105.55027881 </i>
   </energy>
  </scstep>
  <scstep>
   <time name="diag">    2.35    2.36</time>
   <time name="diis">    4.47    4.48</time>
   <time name="orth">    0.50    0.50</time>
   <time name="total">    8.20    8.22</time>
   <dipole>
    <v name="dipole">      0.00000000       0.00000000      -0.00182184 </v>
    <i name="Tr[quadrupol]">  -2026.34231211 </i>
    <i name="Echarged">      0.00000000 </i>
    <i name="Edipol_quadrupol">      0.00000000 </i>
    <i name="Eion">      0.00000000 </i>
   </dipole>
   <energy>
    <i name="e_fr_energy">   -105.55530345 </i>
    <i name="e_wo_entrp">   -105.54529349 </i>
    <i name="e_0_energy">   -105.55029847 </i>
   </energy>
  </scstep>
  <scstep>
   <time name="diag">    2.35    2.36</time>
   <time name="diis">    3.73    3.74</time>
   <time name="orth">    0.49    0.49</time>
   <time name="total">    7.45    7.47</time>
   <dipole>
    <v name="dipole">      0.00000000       0.00000000      -0.00014933 </v>
    <i name="Tr[quadrupol]">  -2026.34405475 </i>
    <i name="Echarged">      0.00000000 </i>
    <i name="Edipol_quadrupol">      0.00000000 </i>
    <i name="Eion">      0.00000000 </i>
   </dipole>
   <energy>
    <i name="e_fr_energy">   -105.55532047 </i>
    <i name="e_wo_entrp">   -105.54531002 </i>
    <i name="e_0_energy">   -105.55031525 </i>
   </energy>
  </scstep>
  <scstep>
   <time name="diag">    2.35    2.35</time>
   <time name="diis">    4.91    4.93</time>
   <time name="orth">    0.50    0.50</time>
   <time name="total">    8.63    8.66</time>
   <dipole>
    <v name="dipole">      0.00000000       0.00000000      -0.00086957 </v>
    <i name="Tr[quadrupol]">  -2026.34893757 </i>
    <i name="Echarged">      0.00000000 </i>
    <i name="Edipol_quadrupol">      0.00000000 </i>
    <i name="Eion">      0.00000000 </i>
   </dipole>
   <energy>
    <i name="e_fr_energy">   -105.55535230 </i>
    <i name="e_wo_entrp">   -105.54534307 </i>
    <i name="e_0_energy">   -105.55034769 </i>
   </energy>
  </scstep>
  <scstep>
   <time name="diag">    2.36    2.37</time>
   <time name="diis">    3.30    3.31</time>
   <time name="orth">    0.50    0.50</time>
   <time name="total">    6.35    6.36</time>
   <dipole>
    <v name="dipole">      0.00000000       0.00000000      -0.00096332 </v>
    <i name="Tr[quadrupol]">  -2026.35025947 </i>
    <i name="Echarged">      0.00000000 </i>
    <i name="Edipol_quadrupol">      0.00000000 </i>
    <i name="Eion">      0.00000000 </i>
   </dipole>
   <energy>
    <i name="alphaZ">    178.92860502 </i>
    <i name="ewald">   8840.72302117 </i>
    <i name="hartreedc"> -22674.63490383 </i>
    <i name="XCdc">   -920.18525288 </i>
    <i name="pawpsdc">  16643.82834281 </i>
    <i name="pawaedc"> -15192.49889384 </i>
    <i name="eentropy">     -0.01000971 </i>
    <i name="bandstr">   -367.99841769 </i>
    <i name="atom">  13386.29214936 </i>
    <i name="e_fr_energy">   -105.55535959 </i>
    <i name="e_wo_entrp">   -105.54534988 </i>
    <i name="e_0_energy">   -105.55035474 </i>
   </energy>
  </scstep>
  <structure>
   <crystal>
    <varray name="basis" >
     <v>       8.47799969       0.00000000       0.00000000 </v>
     <v>       0.00000000       8.39290047       0.00000000 </v>
     <v>       0.00000000       0.00000000      14.94929981 </v>
    </varray>
    <i name="volume">   1063.71754076 </i>
    <varray name="rec_basis" >
     <v>       0.11795235       0.00000000       0.00000000 </v>
     <v>       0.00000000       0.11914832       0.00000000 </v>
     <v>       0.00000000       0.00000000       0.06689277 </v>
    </varray>
   </crystal>
   <varray name="positions" >
    <v>       0.37500000       0.60020000       0.04243000 </v>
    <v>       0.12500000       0.10024000       0.09735000 </v>
    <v>       0.37500000       0.89894849       0.23436957 </v>
    <v>       0.12500000       0.39885889       0.28907152 </v>
    <v>       0.87500000       0.60020000       0.04243000 </v>
    <v>       0.62500000       0.10024000       0.09735000 </v>
    <v>       0.87500000       0.89894849       0.23436957 </v>
    <v>       0.62500000       0.39885889       0.28907152 </v>
    <v>       0.37500000       0.26927999       0.00000000 </v>
    <v>       0.37500000       0.92720002       0.03439000 </v>
    <v>       0.12500000       0.42734000       0.10539000 </v>
    <v>       0.12500000       0.76925999       0.13970999 </v>
    <v>       0.37500000       0.23037783       0.19172344 </v>
    <v>       0.37500000       0.57214199       0.22615003 </v>
    <v>       0.12500000       0.07192223       0.29623322 </v>
    <v>       0.12500000       0.72977683       0.33021202 </v>
    <v>       0.87500000       0.26927999       0.00000000 </v>
    <v>       0.87500000       0.92720002       0.03439000 </v>
    <v>       0.62500000       0.42734000       0.10539000 </v>
    <v>       0.62500000       0.76925999       0.13970999 </v>
    <v>       0.87500000       0.23037783       0.19172344 </v>
    <v>       0.87500000       0.57214199       0.22615003 </v>
    <v>       0.62500000       0.07192223       0.29623322 </v>
    <v>       0.62500000       0.72977683       0.33021202 </v>
   </varray>
  </structure>
  <varray name="forces" >
   <v>       0.00000000       0.04063181      -0.10662858 </v>
   <v>      -0.00000000       0.07559753      -0.59951385 </v>
   <v>       0.00000000      -0.08876566       0.54196475 </v>
   <v>      -0.00000000      -0.00661858       0.12223728 </v>
   <v>       0.00000000       0.04063181      -0.10662858 </v>
   <v>      -0.00000000       0.07559753      -0.59951385 </v>
   <v>       0.00000000      -0.08876566       0.54196475 </v>
   <v>      -0.00000000      -0.00661858       0.12223728 </v>
   <v>      -0.00000000       0.04818707       0.91145163 </v>
   <v>      -0.00000000       0.02121684       0.55693441 </v>
   <v>       0.00000000      -0.08327337      -0.16310920 </v>
   <v>      -0.00000000      -0.15703870      -0.24974219 </v>
   <v>      -0.00000000       0.15724504       0.19678714 </v>
   <v>      -0.00000000       0.04866043       0.14131087 </v>
   <v>      -0.00000000      -0.01582477      -0.52544944 </v>
   <v>       0.00000000      -0.04001764      -0.82624282 </v>
   <v>      -0.00000000       0.04818707       0.91145163 </v>
   <v>      -0.00000000       0.02121684       0.55693441 </v>
   <v>       0.00000000      -0.08327337      -0.16310920 </v>
   <v>      -0.00000000      -0.15703870      -0.24974219 </v>
   <v>      -0.00000000       0.15724504       0.19678714 </v>
   <v>      -0.00000000       0.04866043       0.14131087 </v>
   <v>      -0.00000000      -0.01582477      -0.52544944 </v>
   <v>       0.00000000      -0.04001764      -0.82624282 </v>
  </varray>
  <varray name="stress" >
   <v>     -18.57992544       0.00000000       0.00000000 </v>
   <v>       0.00000000     -28.09316904      -0.83680405 </v>
   <v>       0.00000000      -0.83680404     -13.38085846 </v>
  </varray>
  <energy>
   <i name="e_fr_energy">   -105.55535959 </i>
   <i name="e_wo_entrp">   -105.55035474 </i>
   <i name="e_0_energy">     -0.01000971 </i>
  </energy>
  <time name="totalsc">  176.57  177.01</time>
 </calculation>
 <calculation>
  <scstep>
   <time name="dav">   13.18   13.21</time>
   <time name="total">   14.06   14.10</time>
   <dipole>
    <v name="dipole">      0.00000000       0.00000000      -0.00085469 </v>
    <i name="Tr[quadrupol]">  -2028.06507137 </i>
    <i name="Echarged">      0.00000000 </i>
    <i name="Edipol_quadrupol">      0.00000000 </i>
    <i name="Eion">      0.00000000 </i>
   </dipole>
   <energy>
    <i name="alphaZ">    178.92800920 </i>
    <i name="ewald">   9244.47861590 </i>
    <i name="hartreedc"> -23076.66730650 </i>
    <i name="XCdc">   -919.56806660 </i>
    <i name="pawpsdc">  16643.82761400 </i>
    <i name="pawaedc"> -15192.49729672 </i>
    <i name="eentropy">     -0.01093610 </i>
    <i name="bandstr">   -370.03781619 </i>
    <i name="atom">  13386.29214936 </i>
    <i name="e_fr_energy">   -105.25503366 </i>
    <i name="e_wo_entrp">   -105.24409756 </i>
    <i name="e_0_energy">   -105.24956561 </i>
   </energy>
  </scstep>
  <scstep>
   <time name="diag">    2.36    2.37</time>
   <time name="diis">    8.25    8.27</time>
   <time name="orth">    0.50    0.50</time>
   <time name="total">   11.98   12.01</time>
   <dipole>
    <v name="dipole">      0.00000000       0.00000000      -0.01027824 </v>
    <i name="Tr[quadrupol]">  -2028.07920064 </i>
    <i name="Echarged">      0.00000000 </i>
    <i name="Edipol_quadrupol">      0.00000000 </i>
    <i name="Eion">      0.00000000 </i>
   </dipole>
   <energy>
    <i name="e_fr_energy">   -105.83341397 </i>
    <i name="e_wo_entrp">   -105.82204248 </i>
    <i name="e_0_energy">   -105.82772823 </i>
   </energy>
  </scstep>
  <scstep>
   <time name="diag">    2.37    2.37</time>
   <time name="diis">   11.31   11.33</time>
   <time name="orth">    0.49    0.50</time>
   <time name="total">   15.03   15.07</time>
   <dipole>
    <v name="dipole">      0.00000000       0.00000000      -0.01861813 </v>
    <i name="Tr[quadrupol]">  -2028.09650956 </i>
    <i name="Echarged">      0.00000000 </i>
    <i name="Edipol_quadrupol">      0.00000000 </i>
    <i name="Eion">      0.00000000 </i>
   </dipole>
   <energy>
    <i name="e_fr_energy">   -105.87334527 </i>
    <i name="e_wo_entrp">   -105.86185215 </i>
    <i name="e_0_energy">   -105.86759871 </i>
   </energy>
  </scstep>
  <scstep>
   <time name="diag">    2.37    2.38</time>
   <time name="diis">    8.24    8.26</time>
   <time name="orth">    0.49    0.49</time>
   <time name="total">   11.97   12.00</time>
   <dipole>
    <v name="dipole">      0.00000000       0.00000000      -0.02146388 </v>
    <i name="Tr[quadrupol]">  -2028.11105448 </i>
    <i name="Echarged">      0.00000000 </i>
    <i name="Edipol_quadrupol">      0.00000000 </i>
    <i name="Eion">      0.00000000 </i>
   </dipole>
   <energy>
    <i name="e_fr_energy">   -105.86752795 </i>
    <i name="e_wo_entrp">   -105.85605096 </i>
    <i name="e_0_energy">   -105.86178946 </i>
   </energy>
  </scstep>
  <scstep>
   <time name="diag">    2.37    2.38</time>
   <time name="diis">    8.03    8.05</time>
   <time name="orth">    0.49    0.49</time>
   <time name="total">   11.76   11.79</time>
   <dipole>
    <v name="dipole">      0.00000000       0.00000000      -0.02544870 </v>
    <i name="Tr[quadrupol]">  -2028.15277173 </i>
    <i name="Echarged">      0.00000000 </i>
    <i name="Edipol_quadrupol">      0.00000000 </i>
    <i name="Eion">      0.00000000 </i>
   </dipole>
   <energy>
    <i name="e_fr_energy">   -105.85781566 </i>
    <i name="e_wo_entrp">   -105.84662971 </i>
    <i name="e_0_energy">   -105.85222269 </i>
   </energy>
  </scstep>
  <scstep>
   <time name="diag">    2.37    2.37</time>
   <time name="diis">    8.04    8.06</time>
   <time name="orth">    0.50    0.50</time>
   <time name="total">   11.77   11.80</time>
   <dipole>
    <v name="dipole">      0.00000000       0.00000000      -0.01669928 </v>
    <i name="Tr[quadrupol]">  -2028.15829957 </i>
    <i name="Echarged">      0.00000000 </i>
    <i name="Edipol_quadrupol">      0.00000000 </i>
    <i name="Eion">      0.00000000 </i>
   </dipole>
   <energy>
    <i name="e_fr_energy">   -105.85487949 </i>
    <i name="e_wo_entrp">   -105.84371213 </i>
    <i name="e_0_energy">   -105.84929581 </i>
   </energy>
  </scstep>
  <scstep>
   <time name="diag">    2.36    2.37</time>
   <time name="diis">    8.13    8.15</time>
   <time name="orth">    0.49    0.49</time>
   <time name="total">   11.85   11.88</time>
   <dipole>
    <v name="dipole">      0.00000000       0.00000000      -0.01474409 </v>
    <i name="Tr[quadrupol]">  -2028.15718175 </i>
    <i name="Echarged">      0.00000000 </i>
    <i name="Edipol_quadrupol">      0.00000000 </i>
    <i name="Eion">      0.00000000 </i>
   </dipole>
   <energy>
    <i name="e_fr_energy">   -105.85473307 </i>
    <i name="e_wo_entrp">   -105.84355047 </i>
    <i name="e_0_energy">   -105.84914177 </i>
   </energy>
  </scstep>
  <scstep>
   <time name="diag">    2.37    2.38</time>
   <time name="diis">    8.18    8.20</time>
   <time name="orth">    0.49    0.49</time>
   <time name="total">   11.91   11.94</time>
   <dipole>
    <v name="dipole">      0.00000000       0.00000000      -0.01720980 </v>
    <i name="Tr[quadrupol]">  -2028.16305525 </i>
    <i name="Echarged">      0.00000000 </i>
    <i name="Edipol_quadrupol">      0.00000000 </i>
    <i name="Eion">      0.00000000 </i>
   </dipole>
   <energy>
    <i name="e_fr_energy">   -105.85447222 </i>
    <i name="e_wo_entrp">   -105.84331833 </i>
    <i name="e_0_energy">   -105.84889528 </i>
   </energy>
  </scstep>
  <scstep>
   <time name="diag">    2.36    2.37</time>
   <time name="diis">    8.07    8.09</time>
   <time name="orth">    0.50    0.50</time>
   <time name="total">   11.81   11.84</time>
   <dipole>
    <v name="dipole">      0.00000000       0.00000000      -0.01617466 </v>
    <i name="Tr[quadrupol]">  -2028.16770880 </i>
    <i name="Echarged">      0.00000000 </i>
    <i name="Edipol_quadrupol">      0.00000000 </i>
    <i name="Eion">      0.00000000 </i>
   </dipole>
   <energy>
    <i name="e_fr_energy">   -105.85432156 </i>
    <i name="e_wo_entrp">   -105.84321342 </i>
    <i name="e_0_energy">   -105.84876749 </i>
   </energy>
  </scstep>
  <scstep>
   <time name="diag">    2.37    2.38</time>
   <time name="diis">    8.13    8.15</time>
   <time name="orth">    0.50    0.50</time>
   <time name="total">   11.87   11.90</time>
   <dipole>
    <v name="dipole">      0.00000000       0.00000000      -0.01642521 </v>
    <i name="Tr[quadrupol]">  -2028.17378986 </i>
    <i name="Echarged">      0.00000000 </i>
    <i name="Edipol_quadrupol">      0.00000000 </i>
    <i name="Eion">      0.00000000 </i>
   </dipole>
   <energy>
    <i name="e_fr_energy">   -105.85416553 </i>
    <i name="e_wo_entrp">   -105.84313769 </i>
    <i name="e_0_energy">   -105.84865161 </i>
   </energy>
  </scstep>
  <scstep>
   <time name="diag">    2.37    2.38</time>
   <time name="diis">    8.00    8.05</time>
   <time name="orth">    0.49    0.49</time>
   <time name="total">   11.73   11.79</time>
   <dipole>
    <v name="dipole">      0.00000000       0.00000000      -0.01646663 </v>
    <i name="Tr[quadrupol]">  -2028.17252293 </i>
    <i name="Echarged">      0.00000000 </i>
    <i name="Edipol_quadrupol">      0.00000000 </i>
    <i name="Eion">      0.00000000 </i>
   </dipole>
   <energy>
    <i name="e_fr_energy">   -105.85415067 </i>
    <i name="e_wo_entrp">   -105.84311572 </i>
    <i name="e_0_energy">   -105.84863319 </i>
   </energy>
  </scstep>
  <scstep>
   <time name="diag">    2.35    2.35</time>
   <time name="diis">    8.04    8.06</time>
   <time name="orth">    0.50    0.50</time>
   <time name="total">   11.76   11.79</time>
   <dipole>
    <v name="dipole">      0.00000000       0.00000000      -0.01612630 </v>
    <i name="Tr[quadrupol]">  -2028.17098135 </i>
    <i name="Echarged">      0.00000000 </i>
    <i name="Edipol_quadrupol">      0.00000000 </i>
    <i name="Eion">      0.00000000 </i>
   </dipole>
   <energy>
    <i name="e_fr_energy">   -105.85416350 </i>
    <i name="e_wo_entrp">   -105.84314120 </i>
    <i name="e_0_energy">   -105.84865235 </i>
   </energy>
  </scstep>
  <scstep>
   <time name="diag">    2.35    2.36</time>
   <time name="diis">    5.30    5.31</time>
   <time name="orth">    0.50    0.50</time>
   <time name="total">    9.02    9.04</time>
   <dipole>
    <v name="dipole">      0.00000000       0.00000000      -0.01553177 </v>
    <i name="Tr[quadrupol]">  -2028.16858548 </i>
    <i name="Echarged">      0.00000000 </i>
    <i name="Edipol_quadrupol">      0.00000000 </i>
    <i name="Eion">      0.00000000 </i>
   </dipole>
   <energy>
    <i name="e_fr_energy">   -105.85420027 </i>
    <i name="e_wo_entrp">   -105.84318973 </i>
    <i name="e_0_energy">   -105.84869500 </i>
   </energy>
  </scstep>
  <scstep>
   <time name="diag">    2.35    2.36</time>
   <time name="diis">    4.87    4.88</time>
   <time name="orth">    0.49    0.50</time>
   <time name="total">    8.59    8.62</time>
   <dipole>
    <v name="dipole">      0.00000000       0.00000000      -0.01531003 </v>
    <i name="Tr[quadrupol]">  -2028.16661490 </i>
    <i name="Echarged">      0.00000000 </i>
    <i name="Edipol_quadrupol">      0.00000000 </i>
    <i name="Eion">      0.00000000 </i>
   </dipole>
   <energy>
    <i name="e_fr_energy">   -105.85421933 </i>
    <i name="e_wo_entrp">   -105.84320010 </i>
    <i name="e_0_energy">   -105.84870972 </i>
   </energy>
  </scstep>
  <scstep>
   <time name="diag">    2.35    2.36</time>
   <time name="diis">    5.09    5.10</time>
   <time name="orth">    0.49    0.49</time>
   <time name="total">    8.80    8.83</time>
   <dipole>
    <v name="dipole">      0.00000000       0.00000000      -0.01460741 </v>
    <i name="Tr[quadrupol]">  -2028.16273655 </i>
    <i name="Echarged">      0.00000000 </i>
    <i name="Edipol_quadrupol">      0.00000000 </i>
    <i name="Eion">      0.00000000 </i>
   </dipole>
   <energy>
    <i name="e_fr_energy">   -105.85427737 </i>
    <i name="e_wo_entrp">   -105.84326376 </i>
    <i name="e_0_energy">   -105.84877056 </i>
   </energy>
  </scstep>
  <scstep>
   <time name="diag">    2.36    2.36</time>
   <time name="diis">    4.91    4.93</time>
   <time name="orth">    0.50    0.50</time>
   <time name="total">    8.64    8.67</time>
   <dipole>
    <v name="dipole">      0.00000000       0.00000000      -0.01366886 </v>
    <i name="Tr[quadrupol]">  -2028.15776708 </i>
    <i name="Echarged">      0.00000000 </i>
    <i name="Edipol_quadrupol">      0.00000000 </i>
    <i name="Eion">      0.00000000 </i>
   </dipole>
   <energy>
    <i name="e_fr_energy">   -105.85432628 </i>
    <i name="e_wo_entrp">   -105.84331560 </i>
    <i name="e_0_energy">   -105.84882094 </i>
   </energy>
  </scstep>
  <scstep>
   <time name="diag">    2.37    2.38</time>
   <time name="diis">    4.99    5.00</time>
   <time name="orth">    0.49    0.49</time>
   <time name="total">    8.73    8.75</time>
   <dipole>
    <v name="dipole">      0.00000000       0.00000000      -0.01318895 </v>
    <i name="Tr[quadrupol]">  -2028.15409840 </i>
    <i name="Echarged">      0.00000000 </i>
    <i name="Edipol_quadrupol">      0.00000000 </i>
    <i name="Eion">      0.00000000 </i>
   </dipole>
   <energy>
    <i name="e_fr_energy">   -105.85438053 </i>
    <i name="e_wo_entrp">   -105.84336836 </i>
    <i name="e_0_energy">   -105.84887444 </i>
   </energy>
  </scstep>
  <scstep>
   <time name="diag">    2.37    2.37</time>
   <time name="diis">    4.99    5.00</time>
   <time name="orth">    0.50    0.50</time>
   <time name="total">    8.73    8.75</time>
   <dipole>
    <v name="dipole">      0.00000000       0.00000000      -0.01212849 </v>
    <i name="Tr[quadrupol]">  -2028.15003092 </i>
    <i name="Echarged">      0.00000000 </i>
    <i name="Edipol_quadrupol">      0.00000000 </i>
    <i name="Eion">      0.00000000 </i>
   </dipole>
   <energy>
    <i name="e_fr_energy">   -105.85442259 </i>
    <i name="e_wo_entrp">   -105.84340831 </i>
    <i name="e_0_energy">   -105.84891545 </i>
   </energy>
  </scstep>
  <scstep>
   <time name="diag">    2.35    2.37</time>
[...]
       <r>   -2.6741    1.0000 </r>
       <r>   -2.6516    1.0000 </r>
       <r>   -2.6516    1.0000 </r>
       <r>   -2.5795    1.0000 </r>
       <r>   -2.5795    1.0000 </r>
       <r>   -2.4401    1.0000 </r>
       <r>   -2.4401    1.0000 </r>
       <r>   -2.3906    1.0000 </r>
       <r>   -2.3906    1.0000 </r>
       <r>   -2.3016    1.0000 </r>
       <r>   -2.3016    1.0000 </r>
       <r>   -2.2340    1.0000 </r>
       <r>   -2.2340    1.0000 </r>
       <r>   -2.1743    1.0000 </r>
       <r>   -2.1743    1.0000 </r>
       <r>   -2.0529    1.0000 </r>
       <r>   -2.0529    1.0000 </r>
       <r>   -1.9938    1.0000 </r>
       <r>   -1.9938    1.0000 </r>
       <r>   -1.9377    1.0000 </r>
       <r>   -1.9377    1.0000 </r>
       <r>   -1.9184    1.0000 </r>
       <r>   -1.9184    1.0000 </r>
       <r>   -1.7518    1.0000 </r>
       <r>   -1.7518    1.0000 </r>
       <r>   -1.7075    1.0000 </r>
       <r>   -1.7075    1.0000 </r>
       <r>   -1.6204    1.0000 </r>
       <r>   -1.6204    1.0000 </r>
       <r>   -1.5291    1.0000 </r>
       <r>   -1.5291    1.0000 </r>
       <r>   -1.4554    1.0000 </r>
       <r>   -1.4554    1.0000 </r>
       <r>   -1.3453    1.0000 </r>
       <r>   -1.3453    1.0000 </r>
       <r>   -1.3127    1.0000 </r>
       <r>   -1.3127    1.0000 </r>
       <r>   -1.1860    1.0000 </r>
       <r>   -1.1860    1.0000 </r>
       <r>   -1.1388    1.0000 </r>
       <r>   -1.1388    1.0000 </r>
       <r>   -1.0628    1.0000 </r>
       <r>   -1.0628    1.0000 </r>
       <r>   -0.9793    1.0000 </r>
       <r>   -0.9793    1.0000 </r>
       <r>   -0.9474    1.0000 </r>
       <r>   -0.9474    1.0000 </r>
       <r>   -0.8524    1.0000 </r>
       <r>   -0.8524    1.0000 </r>
       <r>   -0.8015    1.0000 </r>
       <r>   -0.8015    1.0000 </r>
       <r>   -0.7360    1.0000 </r>
       <r>   -0.7360    1.0000 </r>
       <r>   -0.6618    1.0000 </r>
       <r>   -0.6618    1.0000 </r>
       <r>   -0.6158    1.0000 </r>
       <r>   -0.6158    1.0000 </r>
       <r>   -0.5157    1.0000 </r>
       <r>   -0.5157    1.0000 </r>
       <r>   -0.3903    1.0000 </r>
       <r>   -0.3903    1.0000 </r>
       <r>   -0.3102    1.0000 </r>
       <r>   -0.3102    1.0000 </r>
       <r>   -0.2475    1.0000 </r>
       <r>   -0.2475    1.0000 </r>
       <r>   -0.1712    1.0000 </r>
       <r>   -0.1712    1.0000 </r>
       <r>    0.6033    0.1324 </r>
       <r>    0.6033    0.1324 </r>
       <r>    0.8184    0.0000 </r>
       <r>    0.8184    0.0000 </r>
       <r>    1.0834    0.0000 </r>
       <r>    1.0834    0.0000 </r>
       <r>    1.7892    0.0000 </r>
       <r>    1.7892    0.0000 </r>
       <r>    1.9127    0.0000 </r>
       <r>    1.9127    0.0000 </r>
       <r>    2.3339    0.0000 </r>
       <r>    2.3339    0.0000 </r>
       <r>    2.4934    0.0000 </r>
       <r>    2.4934    0.0000 </r>
       <r>    3.0946    0.0000 </r>
       <r>    3.0946    0.0000 </r>
       <r>    3.4127    0.0000 </r>
       <r>    3.4127    0.0000 </r>
       <r>    3.5808    0.0000 </r>
       <r>    3.5808    0.0000 </r>
       <r>    4.1853    0.0000 </r>
       <r>    4.1853    0.0000 </r>
       <r>    4.4938    0.0000 </r>
       <r>    4.4938    0.0000 </r>
       <r>    4.9989    0.0000 </r>
       <r>    4.9989    0.0000 </r>
       <r>    5.3044    0.0000 </r>
       <r>    5.3044    0.0000 </r>
       <r>    5.7841    0.0000 </r>
       <r>    5.7841    0.0000 </r>
      </set>
      <set comment="kpoint 7">
       <r>   -7.0629    1.0000 </r>
       <r>   -6.6650    1.0000 </r>
       <r>   -5.5715    1.0000 </r>
       <r>   -5.5690    1.0000 </r>
       <r>   -5.3673    1.0000 </r>
       <r>   -5.2320    1.0000 </r>
       <r>   -5.1536    1.0000 </r>
       <r>   -5.1450    1.0000 </r>
       <r>   -3.9391    1.0000 </r>
       <r>   -3.9173    1.0000 </r>
       <r>   -3.7033    1.0000 </r>
       <r>   -3.5413    1.0000 </r>
       <r>   -3.3111    1.0000 </r>
       <r>   -3.2511    1.0000 </r>
       <r>   -3.1692    1.0000 </r>
       <r>   -3.1557    1.0000 </r>
       <r>   -3.0814    1.0000 </r>
       <r>   -3.0129    1.0000 </r>
       <r>   -2.9861    1.0000 </r>
       <r>   -2.9783    1.0000 </r>
       <r>   -2.8714    1.0000 </r>
       <r>   -2.7849    1.0000 </r>
       <r>   -2.7780    1.0000 </r>
       <r>   -2.7089    1.0000 </r>
       <r>   -2.6942    1.0000 </r>
       <r>   -2.6273    1.0000 </r>
       <r>   -2.5627    1.0000 </r>
       <r>   -2.5606    1.0000 </r>
       <r>   -2.5392    1.0000 </r>
       <r>   -2.4418    1.0000 </r>
       <r>   -2.4177    1.0000 </r>
       <r>   -2.3823    1.0000 </r>
       <r>   -2.3698    1.0000 </r>
       <r>   -2.3155    1.0000 </r>
       <r>   -2.2922    1.0000 </r>
       <r>   -2.2860    1.0000 </r>
       <r>   -2.2691    1.0000 </r>
       <r>   -2.1944    1.0000 </r>
       <r>   -2.0406    1.0000 </r>
       <r>   -2.0009    1.0000 </r>
       <r>   -1.9877    1.0000 </r>
       <r>   -1.9645    1.0000 </r>
       <r>   -1.9242    1.0000 </r>
       <r>   -1.8914    1.0000 </r>
       <r>   -1.8515    1.0000 </r>
       <r>   -1.8508    1.0000 </r>
       <r>   -1.7647    1.0000 </r>
       <r>   -1.7584    1.0000 </r>
       <r>   -1.7511    1.0000 </r>
       <r>   -1.6535    1.0000 </r>
       <r>   -1.6285    1.0000 </r>
       <r>   -1.6254    1.0000 </r>
       <r>   -1.5495    1.0000 </r>
       <r>   -1.5133    1.0000 </r>
       <r>   -1.4064    1.0000 </r>
       <r>   -1.3569    1.0000 </r>
       <r>   -1.3398    1.0000 </r>
       <r>   -1.2977    1.0000 </r>
       <r>   -1.2468    1.0000 </r>
       <r>   -1.1958    1.0000 </r>
       <r>   -1.1797    1.0000 </r>
       <r>   -1.1494    1.0000 </r>
       <r>   -1.0675    1.0000 </r>
       <r>   -1.0210    1.0000 </r>
       <r>   -1.0156    1.0000 </r>
       <r>   -0.9766    1.0000 </r>
       <r>   -0.9588    1.0000 </r>
       <r>   -0.9380    1.0000 </r>
       <r>   -0.9308    1.0000 </r>
       <r>   -0.9228    1.0000 </r>
       <r>   -0.8504    1.0000 </r>
       <r>   -0.8162    1.0000 </r>
       <r>   -0.8112    1.0000 </r>
       <r>   -0.8039    1.0000 </r>
       <r>   -0.7447    1.0000 </r>
       <r>   -0.6932    1.0000 </r>
       <r>   -0.6346    1.0000 </r>
       <r>   -0.6277    1.0000 </r>
       <r>   -0.6086    1.0000 </r>
       <r>   -0.5480    1.0000 </r>
       <r>   -0.5278    1.0000 </r>
       <r>   -0.4301    1.0000 </r>
       <r>   -0.4167    1.0000 </r>
       <r>   -0.3980    1.0000 </r>
       <r>   -0.3925    1.0000 </r>
       <r>   -0.3801    1.0000 </r>
       <r>   -0.3500    1.0000 </r>
       <r>   -0.0342    1.0000 </r>
       <r>    0.4189    1.0000 </r>
       <r>    0.4473    1.0000 </r>
       <r>    0.5458    0.9449 </r>
       <r>    0.5607    0.8147 </r>
       <r>    0.5958    0.2229 </r>
       <r>    0.7960    0.0000 </r>
       <r>    0.8558    0.0000 </r>
       <r>    1.0048    0.0000 </r>
       <r>    1.0338    0.0000 </r>
       <r>    1.0751    0.0000 </r>
       <r>    1.6222    0.0000 </r>
       <r>    1.9341    0.0000 </r>
       <r>    1.9955    0.0000 </r>
       <r>    2.0304    0.0000 </r>
       <r>    3.0891    0.0000 </r>
       <r>    3.1265    0.0000 </r>
       <r>    3.1832    0.0000 </r>
       <r>    3.3167    0.0000 </r>
       <r>    3.3886    0.0000 </r>
       <r>    3.4528    0.0000 </r>
       <r>    3.6197    0.0000 </r>
       <r>    3.6889    0.0000 </r>
       <r>    4.4368    0.0000 </r>
       <r>    4.4967    0.0000 </r>
       <r>    4.6410    0.0000 </r>
       <r>    4.6933    0.0000 </r>
       <r>    5.0473    0.0000 </r>
       <r>    5.0849    0.0000 </r>
       <r>    5.2109    0.0000 </r>
       <r>    5.2525    0.0000 </r>
       <r>    5.6609    0.0000 </r>
       <r>    5.7004    0.0000 </r>
      </set>
      <set comment="kpoint 8">
       <r>   -6.9402    1.0000 </r>
       <r>   -6.5361    1.0000 </r>
       <r>   -6.0726    1.0000 </r>
       <r>   -5.6782    1.0000 </r>
       <r>   -5.3226    1.0000 </r>
       <r>   -5.1901    1.0000 </r>
       <r>   -5.1398    1.0000 </r>
       <r>   -5.1278    1.0000 </r>
       <r>   -3.7789    1.0000 </r>
       <r>   -3.6389    1.0000 </r>
       <r>   -3.6269    1.0000 </r>
       <r>   -3.5151    1.0000 </r>
       <r>   -3.3606    1.0000 </r>
       <r>   -3.3231    1.0000 </r>
       <r>   -3.2957    1.0000 </r>
       <r>   -3.1757    1.0000 </r>
       <r>   -3.0897    1.0000 </r>
       <r>   -3.0265    1.0000 </r>
       <r>   -2.9644    1.0000 </r>
       <r>   -2.9196    1.0000 </r>
       <r>   -2.8808    1.0000 </r>
       <r>   -2.7915    1.0000 </r>
       <r>   -2.7474    1.0000 </r>
       <r>   -2.7358    1.0000 </r>
       <r>   -2.6950    1.0000 </r>
       <r>   -2.6169    1.0000 </r>
       <r>   -2.5944    1.0000 </r>
       <r>   -2.5450    1.0000 </r>
       <r>   -2.5098    1.0000 </r>
       <r>   -2.4319    1.0000 </r>
       <r>   -2.4305    1.0000 </r>
       <r>   -2.3526    1.0000 </r>
       <r>   -2.3458    1.0000 </r>
       <r>   -2.3319    1.0000 </r>
       <r>   -2.3102    1.0000 </r>
       <r>   -2.2488    1.0000 </r>
       <r>   -2.2073    1.0000 </r>
       <r>   -2.1822    1.0000 </r>
       <r>   -2.0877    1.0000 </r>
       <r>   -2.0621    1.0000 </r>
       <r>   -2.0369    1.0000 </r>
       <r>   -1.9922    1.0000 </r>
       <r>   -1.9843    1.0000 </r>
       <r>   -1.9213    1.0000 </r>
       <r>   -1.8929    1.0000 </r>
       <r>   -1.7988    1.0000 </r>
       <r>   -1.7909    1.0000 </r>
       <r>   -1.7681    1.0000 </r>
       <r>   -1.7394    1.0000 </r>
       <r>   -1.7283    1.0000 </r>
       <r>   -1.6076    1.0000 </r>
       <r>   -1.5464    1.0000 </r>
       <r>   -1.4887    1.0000 </r>
       <r>   -1.4293    1.0000 </r>
       <r>   -1.4237    1.0000 </r>
       <r>   -1.4058    1.0000 </r>
       <r>   -1.3686    1.0000 </r>
       <r>   -1.3432    1.0000 </r>
       <r>   -1.2232    1.0000 </r>
       <r>   -1.2196    1.0000 </r>
       <r>   -1.2184    1.0000 </r>
       <r>   -1.1655    1.0000 </r>
       <r>   -1.1201    1.0000 </r>
       <r>   -1.0927    1.0000 </r>
       <r>   -1.0247    1.0000 </r>
       <r>   -1.0057    1.0000 </r>
       <r>   -0.9659    1.0000 </r>
       <r>   -0.9409    1.0000 </r>
       <r>   -0.9242    1.0000 </r>
       <r>   -0.8579    1.0000 </r>
       <r>   -0.8516    1.0000 </r>
       <r>   -0.8446    1.0000 </r>
       <r>   -0.7884    1.0000 </r>
       <r>   -0.7576    1.0000 </r>
       <r>   -0.7350    1.0000 </r>
       <r>   -0.7112    1.0000 </r>
       <r>   -0.6745    1.0000 </r>
       <r>   -0.6516    1.0000 </r>
       <r>   -0.6451    1.0000 </r>
       <r>   -0.6183    1.0000 </r>
       <r>   -0.5866    1.0000 </r>
       <r>   -0.4667    1.0000 </r>
       <r>   -0.4082    1.0000 </r>
       <r>   -0.3809    1.0000 </r>
       <r>   -0.3787    1.0000 </r>
       <r>   -0.3702    1.0000 </r>
       <r>   -0.2364    1.0000 </r>
       <r>   -0.1347    1.0000 </r>
       <r>    0.2756    1.0000 </r>
       <r>    0.4230    1.0000 </r>
       <r>    0.6966    0.0000 </r>
       <r>    0.8451    0.0000 </r>
       <r>    0.9131    0.0000 </r>
       <r>    0.9218    0.0000 </r>
       <r>    1.0533    0.0000 </r>
       <r>    1.1001    0.0000 </r>
       <r>    1.3047    0.0000 </r>
       <r>    1.3686    0.0000 </r>
       <r>    1.6527    0.0000 </r>
       <r>    1.8475    0.0000 </r>
       <r>    1.9467    0.0000 </r>
       <r>    2.1953    0.0000 </r>
       <r>    2.4168    0.0000 </r>
       <r>    2.5065    0.0000 </r>
       <r>    3.0961    0.0000 </r>
       <r>    3.3145    0.0000 </r>
       <r>    3.3479    0.0000 </r>
       <r>    3.3659    0.0000 </r>
       <r>    3.4059    0.0000 </r>
       <r>    3.7372    0.0000 </r>
       <r>    4.4057    0.0000 </r>
       <r>    4.4678    0.0000 </r>
       <r>    4.5441    0.0000 </r>
       <r>    4.8135    0.0000 </r>
       <r>    4.8144    0.0000 </r>
       <r>    4.9315    0.0000 </r>
       <r>    5.2001    0.0000 </r>
       <r>    5.2136    0.0000 </r>
       <r>    5.3536    0.0000 </r>
       <r>    5.4413    0.0000 </r>
      </set>
      <set comment="kpoint 9">
       <r>   -6.5887    1.0000 </r>
       <r>   -6.5887    1.0000 </r>
       <r>   -6.1728    1.0000 </r>
       <r>   -6.1728    1.0000 </r>
       <r>   -5.2220    1.0000 </r>
       <r>   -5.2220    1.0000 </r>
       <r>   -5.1168    1.0000 </r>
       <r>   -5.1168    1.0000 </r>
       <r>   -3.5133    1.0000 </r>
       <r>   -3.5133    1.0000 </r>
       <r>   -3.4426    1.0000 </r>
       <r>   -3.4426    1.0000 </r>
       <r>   -3.4055    1.0000 </r>
       <r>   -3.4055    1.0000 </r>
       <r>   -3.3652    1.0000 </r>
       <r>   -3.3652    1.0000 </r>
       <r>   -3.0934    1.0000 </r>
       <r>   -3.0934    1.0000 </r>
       <r>   -2.9453    1.0000 </r>
       <r>   -2.9453    1.0000 </r>
       <r>   -2.7694    1.0000 </r>
       <r>   -2.7694    1.0000 </r>
       <r>   -2.7329    1.0000 </r>
       <r>   -2.7329    1.0000 </r>
       <r>   -2.6766    1.0000 </r>
       <r>   -2.6766    1.0000 </r>
       <r>   -2.5506    1.0000 </r>
       <r>   -2.5506    1.0000 </r>
       <r>   -2.4614    1.0000 </r>
       <r>   -2.4614    1.0000 </r>
       <r>   -2.3712    1.0000 </r>
       <r>   -2.3712    1.0000 </r>
       <r>   -2.3402    1.0000 </r>
       <r>   -2.3402    1.0000 </r>
       <r>   -2.2345    1.0000 </r>
       <r>   -2.2345    1.0000 </r>
       <r>   -2.1953    1.0000 </r>
       <r>   -2.1953    1.0000 </r>
       <r>   -2.1352    1.0000 </r>
       <r>   -2.1352    1.0000 </r>
       <r>   -2.0602    1.0000 </r>
       <r>   -2.0602    1.0000 </r>
       <r>   -1.9897    1.0000 </r>
       <r>   -1.9897    1.0000 </r>
       <r>   -1.9435    1.0000 </r>
       <r>   -1.9435    1.0000 </r>
       <r>   -1.7421    1.0000 </r>
       <r>   -1.7421    1.0000 </r>
       <r>   -1.7047    1.0000 </r>
       <r>   -1.7047    1.0000 </r>
       <r>   -1.5845    1.0000 </r>
       <r>   -1.5845    1.0000 </r>
       <r>   -1.4669    1.0000 </r>
       <r>   -1.4669    1.0000 </r>
       <r>   -1.4300    1.0000 </r>
       <r>   -1.4300    1.0000 </r>
       <r>   -1.3313    1.0000 </r>
       <r>   -1.3313    1.0000 </r>
       <r>   -1.2441    1.0000 </r>
       <r>   -1.2441    1.0000 </r>
       <r>   -1.1630    1.0000 </r>
       <r>   -1.1630    1.0000 </r>
       <r>   -1.1184    1.0000 </r>
       <r>   -1.1184    1.0000 </r>
       <r>   -1.0638    1.0000 </r>
       <r>   -1.0638    1.0000 </r>
       <r>   -0.9713    1.0000 </r>
       <r>   -0.9713    1.0000 </r>
       <r>   -0.9141    1.0000 </r>
       <r>   -0.9141    1.0000 </r>
       <r>   -0.8050    1.0000 </r>
       <r>   -0.8050    1.0000 </r>
       <r>   -0.8017    1.0000 </r>
       <r>   -0.8017    1.0000 </r>
       <r>   -0.7154    1.0000 </r>
       <r>   -0.7154    1.0000 </r>
       <r>   -0.6751    1.0000 </r>
       <r>   -0.6751    1.0000 </r>
       <r>   -0.6308    1.0000 </r>
       <r>   -0.6308    1.0000 </r>
       <r>   -0.5339    1.0000 </r>
       <r>   -0.5339    1.0000 </r>
       <r>   -0.4400    1.0000 </r>
       <r>   -0.4400    1.0000 </r>
       <r>   -0.3866    1.0000 </r>
       <r>   -0.3866    1.0000 </r>
       <r>   -0.2348    1.0000 </r>
       <r>   -0.2348    1.0000 </r>
       <r>    0.8596    0.0000 </r>
       <r>    0.8596    0.0000 </r>
       <r>    0.9388    0.0000 </r>
       <r>    0.9388    0.0000 </r>
       <r>    1.0385    0.0000 </r>
       <r>    1.0385    0.0000 </r>
       <r>    1.1647    0.0000 </r>
       <r>    1.1647    0.0000 </r>
       <r>    1.2382    0.0000 </r>
       <r>    1.2382    0.0000 </r>
       <r>    1.4058    0.0000 </r>
       <r>    1.4058    0.0000 </r>
       <r>    2.4329    0.0000 </r>
       <r>    2.4329    0.0000 </r>
       <r>    2.4835    0.0000 </r>
       <r>    2.4835    0.0000 </r>
       <r>    2.8432    0.0000 </r>
       <r>    2.8432    0.0000 </r>
       <r>    3.0949    0.0000 </r>
       <r>    3.0949    0.0000 </r>
       <r>    3.5000    0.0000 </r>
       <r>    3.5000    0.0000 </r>
       <r>    3.7207    0.0000 </r>
       <r>    3.7207    0.0000 </r>
       <r>    5.0050    0.0000 </r>
       <r>    5.0050    0.0000 </r>
       <r>    5.2074    0.0000 </r>
       <r>    5.2074    0.0000 </r>
       <r>    5.2468    0.0000 </r>
       <r>    5.2468    0.0000 </r>
       <r>    5.4220    0.0000 </r>
       <r>    5.4220    0.0000 </r>
      </set>
     </set>
    </set>
   </array>
  </eigenvalues>
  <separator name="orbital magnetization" >
   <v name="MAGDIPOLOUT">      0.00000000      0.00000000      0.00000000</v>
  </separator>
 </calculation>
 <structure name="finalpos" >
  <crystal>
   <varray name="basis" >
    <v>       8.47799969       0.00000000       0.00000000 </v>
    <v>       0.00000000       8.39290047       0.00000000 </v>
    <v>       0.00000000       0.00000000      14.94929981 </v>
   </varray>
   <i name="volume">   1063.71754076 </i>
   <varray name="rec_basis" >
    <v>       0.11795235       0.00000000       0.00000000 </v>
    <v>       0.00000000       0.11914832       0.00000000 </v>
    <v>       0.00000000       0.00000000       0.06689277 </v>
   </varray>
  </crystal>
  <varray name="positions" >
   <v>       0.37500000       0.60020000       0.04243000 </v>
   <v>       0.12500000       0.10024000       0.09735000 </v>
   <v>       0.37500000       0.89361771       0.24499127 </v>
   <v>       0.12500000       0.39793106       0.29183307 </v>
   <v>       0.87500000       0.60020000       0.04243000 </v>
   <v>       0.62500000       0.10024000       0.09735000 </v>
   <v>       0.87500000       0.89361771       0.24499127 </v>
   <v>       0.62500000       0.39793106       0.29183307 </v>
   <v>       0.37500000       0.26927999       0.00000000 </v>
   <v>       0.37500000       0.92720002       0.03439000 </v>
   <v>       0.12500000       0.42734000       0.10539000 </v>
   <v>       0.12500000       0.76925999       0.13970999 </v>
   <v>       0.37500000       0.23886993       0.19329262 </v>
   <v>       0.37500000       0.56958259       0.22520108 </v>
   <v>       0.12500000       0.07417134       0.28255411 </v>
   <v>       0.12500000       0.72411568       0.31984473 </v>
   <v>       0.87500000       0.26927999       0.00000000 </v>
   <v>       0.87500000       0.92720002       0.03439000 </v>
   <v>       0.62500000       0.42734000       0.10539000 </v>
   <v>       0.62500000       0.76925999       0.13970999 </v>
   <v>       0.87500000       0.23886993       0.19329262 </v>
   <v>       0.87500000       0.56958259       0.22520108 </v>
   <v>       0.62500000       0.07417134       0.28255411 </v>
   <v>       0.62500000       0.72411568       0.31984473 </v>
  </varray>
  <varray name="selective"  type="logical" >
   <v type="logical" >  F  F  F </v>
   <v type="logical" >  F  F  F </v>
   <v type="logical" >  T  T  T </v>
   <v type="logical" >  T  T  T </v>
   <v type="logical" >  F  F  F </v>
   <v type="logical" >  F  F  F </v>
   <v type="logical" >  T  T  T </v>
   <v type="logical" >  T  T  T </v>
   <v type="logical" >  F  F  F </v>
   <v type="logical" >  F  F  F </v>
   <v type="logical" >  F  F  F </v>
   <v type="logical" >  F  F  F </v>
   <v type="logical" >  T  T  T </v>
   <v type="logical" >  T  T  T </v>
   <v type="logical" >  T  T  T </v>
   <v type="logical" >  T  T  T </v>
   <v type="logical" >  F  F  F </v>
   <v type="logical" >  F  F  F </v>
   <v type="logical" >  F  F  F </v>
   <v type="logical" >  F  F  F </v>
   <v type="logical" >  T  T  T </v>
   <v type="logical" >  T  T  T </v>
   <v type="logical" >  T  T  T </v>
   <v type="logical" >  T  T  T </v>
  </varray>
  <nose>
   <v>      -3.00000000       0.00000000       0.00010000       0.00010000 </v>
  </nose>
 </structure>
</modeling>
