 vasp.5.4.4.18Apr17-6-g9f103f2a35 (build May 11 2017 09:47:33) complex          
  
 executed on            tekla2IFC date 2020.05.14  11:33:01
 running on   12 total cores
 distrk:  each k-point on   12 cores,    1 groups
 distr:  one band on NCORES_PER_BAND=   1 cores,   12 groups


--------------------------------------------------------------------------------------------------------


 INCAR:
 POTCAR:    PAW_PBE In 08Apr2002                  
 POTCAR:    PAW_PBE Pd 04Jan2005                  

 ----------------------------------------------------------------------------- 
|                                                                             |
|           W    W    AA    RRRRR   N    N  II  N    N   GGGG   !!!           |
|           W    W   A  A   R    R  NN   N  II  NN   N  G    G  !!!           |
|           W    W  A    A  R    R  N N  N  II  N N  N  G       !!!           |
|           W WW W  AAAAAA  RRRRR   N  N N  II  N  N N  G  GGG   !            |
|           WW  WW  A    A  R   R   N   NN  II  N   NN  G    G                |
|           W    W  A    A  R    R  N    N  II  N    N   GGGG   !!!           |
|                                                                             |
|      For optimal performance we recommend to set                            |
|        NCORE= 4 - approx SQRT( number of cores)                             |
|      NCORE specifies how many cores store one orbital (NPAR=cpu/NCORE).     |
|      This setting can  greatly improve the performance of VASP for DFT.     |
|      The default,   NCORE=1            might be grossly inefficient         |
|      on modern multi-core architectures or massively parallel machines.     |
|      Do your own testing !!!!                                               |
|      Unfortunately you need to use the default for GW and RPA calculations. |
|      (for HF NCORE is supported but not extensively tested yet)             |
|                                                                             |
 ----------------------------------------------------------------------------- 

 POTCAR:    PAW_PBE In 08Apr2002                  
  local pseudopotential read in
  partial core-charges read in
  partial kinetic energy density read in
  atomic valenz-charges read in
  non local Contribution for L=           0  read in
    real space projection operators read in
  non local Contribution for L=           0  read in
    real space projection operators read in
  non local Contribution for L=           1  read in
    real space projection operators read in
  non local Contribution for L=           1  read in
    real space projection operators read in
  non local Contribution for L=           2  read in
    real space projection operators read in
    PAW grid and wavefunctions read in
 
   number of l-projection  operators is LMAX  =           5
   number of lm-projection operators is LMMAX =          13
 
 POTCAR:    PAW_PBE Pd 04Jan2005                  
  local pseudopotential read in
  partial core-charges read in
  partial kinetic energy density read in
  atomic valenz-charges read in
  non local Contribution for L=           2  read in
    real space projection operators read in
  non local Contribution for L=           2  read in
    real space projection operators read in
  non local Contribution for L=           0  read in
    real space projection operators read in
  non local Contribution for L=           0  read in
    real space projection operators read in
  non local Contribution for L=           1  read in
    real space projection operators read in
  non local Contribution for L=           1  read in
    real space projection operators read in
    PAW grid and wavefunctions read in
 
   number of l-projection  operators is LMAX  =           6
   number of lm-projection operators is LMMAX =          18
 
 Optimization of the real space projectors (new method)

 maximal supplied QI-value         = 12.09
 optimisation between [QCUT,QGAM] = [ 10.76, 21.65] = [ 32.44,131.24] Ry 
 Optimized for a Real-space Cutoff    1.65 Angstroem

   l    n(q)    QCUT    max X(q) W(low)/X(q) W(high)/X(q)  e(spline) 
   0     11    10.764   106.980    0.17E-03    0.26E-03    0.98E-06
   0     11    10.764    81.086    0.18E-03    0.28E-03    0.11E-05
   1     10    10.764    53.097    0.42E-03    0.22E-03    0.10E-05
   1     10    10.764    32.621    0.39E-03    0.21E-03    0.95E-06
   2     10    10.764     8.820    0.14E-03    0.25E-03    0.18E-06
 Optimization of the real space projectors (new method)

 maximal supplied QI-value         = 14.36
 optimisation between [QCUT,QGAM] = [ 10.77, 21.69] = [ 32.49,131.70] Ry 
 Optimized for a Real-space Cutoff    1.46 Angstroem

   l    n(q)    QCUT    max X(q) W(low)/X(q) W(high)/X(q)  e(spline) 
   2      9    10.771    59.108    0.11E-03    0.29E-03    0.19E-06
   2      9    10.771    58.101    0.11E-03    0.29E-03    0.19E-06
   0     10    10.771   102.235    0.41E-04    0.80E-04    0.63E-07
   0     10    10.771    58.388    0.39E-04    0.76E-04    0.60E-07
   1      9    10.771    22.191    0.50E-03    0.23E-03    0.35E-06
   1      9    10.771    15.590    0.42E-03    0.19E-03    0.29E-06
  PAW_PBE In 08Apr2002                  :
 energy of atom  1       EATOM=  -53.7908
 kinetic energy error for atom=    0.0000 (will be added to EATOM!!)
  PAW_PBE Pd 04Jan2005                  :
 energy of atom  2       EATOM= -809.7530
 kinetic energy error for atom=    0.0051 (will be added to EATOM!!)
 
 
 POSCAR: Indium palladium (1/2)                  
  positions in direct lattice
  No initial velocities read in
 exchange correlation table for  LEXCH =        8
   RHO(1)=    0.500       N(1)  =     2000
   RHO(2)=  100.500       N(2)  =     4000
 


--------------------------------------------------------------------------------------------------------


 ion  position               nearest neighbor table
   1  0.822  0.250  0.399-   5 2.69   7 2.70   7 2.70   8 2.72  10 2.74  10 2.74   9 2.81  11 2.90
                            11 2.90   8 2.92   2 3.35   2 3.35   4 3.73   4 3.73
   2  0.178  0.750  0.601-   6 2.69   8 2.70   8 2.70   7 2.72   9 2.74   9 2.74  10 2.81  12 2.90
                            12 2.90   7 2.92   1 3.35   1 3.35   3 3.73   3 3.73
   3  0.678  0.750  0.899-   7 2.69   5 2.70   5 2.70   6 2.72  12 2.74  12 2.74  11 2.81   9 2.90
                             9 2.90   6 2.92   4 3.35   4 3.35   2 3.73   2 3.73
   4  0.322  0.250  0.101-   8 2.69   6 2.70   6 2.70   5 2.72  11 2.74  11 2.74  12 2.81  10 2.90
                            10 2.90   5 2.92   3 3.35   3 3.35   1 3.73   1 3.73
   5  0.840  0.250  0.072-   1 2.69   3 2.70   3 2.70   4 2.72   9 2.85   4 2.92  11 2.92  11 2.92
                            10 2.94  10 2.94   6 3.02   6 3.02  12 3.39
   6  0.160  0.750  0.928-   2 2.69   4 2.70   4 2.70   3 2.72  10 2.85   3 2.92  12 2.92  12 2.92
                             9 2.94   9 2.94   5 3.02   5 3.02  11 3.39
   7  0.660  0.750  0.572-   3 2.69   1 2.70   1 2.70   2 2.72  11 2.85   2 2.92   9 2.92   9 2.92
                            12 2.94  12 2.94   8 3.02   8 3.02  10 3.39
   8  0.340  0.250  0.428-   4 2.69   2 2.70   2 2.70   1 2.72  12 2.85   1 2.92  10 2.92  10 2.92
                            11 2.94  11 2.94   7 3.02   7 3.02   9 3.39
   9  0.933  0.250  0.732-   2 2.74   2 2.74   1 2.81  12 2.82  12 2.82   5 2.85   3 2.90   3 2.90
                             7 2.92   7 2.92   6 2.94   6 2.94   8 3.39
  10  0.067  0.750  0.268-   1 2.74   1 2.74   2 2.81  11 2.82  11 2.82   6 2.85   4 2.90   4 2.90
                             8 2.92   8 2.92   5 2.94   5 2.94   7 3.39
  11  0.567  0.750  0.232-   4 2.74   4 2.74   3 2.81  10 2.82  10 2.82   7 2.85   1 2.90   1 2.90
                             5 2.92   5 2.92   8 2.94   8 2.94   6 3.39
  12  0.433  0.250  0.768-   3 2.74   3 2.74   4 2.81   9 2.82   9 2.82   8 2.85   2 2.90   2 2.90
                             6 2.92   6 2.92   7 2.94   7 2.94   5 3.39
 
  LATTYP: Found a simple orthorhombic cell.
 ALAT       =     4.2171001434
 B/A-ratio  =     1.3319009713
 C/A-ratio  =     1.9510564344
  
  Lattice vectors:
  
 A1 = (   0.0000000000,  -4.2171001434,   0.0000000000)
 A2 = (  -5.6167597771,   0.0000000000,   0.0000000000)
 A3 = (   0.0000000000,   0.0000000000,  -8.2278003693)


Analysis of symmetry for initial positions (statically):
=====================================================================
 Subroutine PRICEL returns:
 Original cell was already a primitive cell.
 

 Routine SETGRP: Setting up the symmetry group for a 
 simple orthorhombic supercell.


 Subroutine GETGRP returns: Found  8 space group operations
 (whereof  2 operations were pure point group operations)
 out of a pool of  8 trial point group operations.


The static configuration has the point symmetry S_2 .
 The point group associated with its full space group is D_2h.


Analysis of symmetry for dynamics (positions and initial velocities):
=====================================================================
 Subroutine PRICEL returns:
 Original cell was already a primitive cell.
 

 Routine SETGRP: Setting up the symmetry group for a 
 simple orthorhombic supercell.


 Subroutine GETGRP returns: Found  8 space group operations
 (whereof  2 operations were pure point group operations)
 out of a pool of  8 trial point group operations.


The dynamic configuration has the point symmetry S_2 .
 The point group associated with its full space group is D_2h.


Analysis of constrained symmetry for selective dynamics:
=====================================================================
 Subroutine PRICEL returns:
 Original cell was already a primitive cell.
 

 Routine SETGRP: Setting up the symmetry group for a 
 simple orthorhombic supercell.


 Subroutine GETGRP returns: Found  2 space group operations
 (whereof  1 operations were pure point group operations)
 out of a pool of  8 trial point group operations.


The constrained configuration has the point symmetry C_1 .
 The point group associated with its full space group is C_1h.


 Subroutine INISYM returns: Found  2 space group operations
 (whereof  1 operations are pure point group operations),
 and found     1 'primitive' translations

 
 
 KPOINTS: K-Points                                

Automatic generation of k-mesh.
Space group operators:
 irot       det(A)        alpha          n_x          n_y          n_z        tau_x        tau_y        tau_z
    1     1.000000     0.000000     1.000000     0.000000     0.000000     0.000000     0.000000     0.000000
    2    -1.000000   180.000000     0.000000     1.000000     0.000000     0.000000    -0.500000     0.000000
 
 Subroutine IBZKPT returns following result:
 ===========================================
 
 Found     70 irreducible k-points:
 
 Following reciprocal coordinates:
            Coordinates               Weight
  0.000000  0.000000  0.000000      1.000000
  0.166667  0.000000  0.000000      2.000000
  0.333333  0.000000  0.000000      2.000000
  0.500000  0.000000  0.000000      1.000000
  0.000000  0.125000  0.000000      2.000000
  0.166667  0.125000  0.000000      4.000000
  0.333333  0.125000  0.000000      4.000000
  0.500000  0.125000  0.000000      2.000000
  0.000000  0.250000  0.000000      2.000000
  0.166667  0.250000  0.000000      4.000000
  0.333333  0.250000  0.000000      4.000000
  0.500000  0.250000  0.000000      2.000000
  0.000000  0.375000  0.000000      2.000000
  0.166667  0.375000  0.000000      4.000000
  0.333333  0.375000  0.000000      4.000000
  0.500000  0.375000  0.000000      2.000000
  0.000000  0.500000  0.000000      1.000000
  0.166667  0.500000  0.000000      2.000000
  0.333333  0.500000  0.000000      2.000000
  0.500000  0.500000  0.000000      1.000000
  0.000000  0.000000  0.250000      2.000000
  0.166667  0.000000  0.250000      2.000000
  0.333333  0.000000  0.250000      2.000000
  0.500000  0.000000  0.250000      2.000000
 -0.333333  0.000000  0.250000      2.000000
 -0.166667  0.000000  0.250000      2.000000
  0.000000  0.125000  0.250000      4.000000
  0.166667  0.125000  0.250000      4.000000
  0.333333  0.125000  0.250000      4.000000
  0.500000  0.125000  0.250000      4.000000
 -0.333333  0.125000  0.250000      4.000000
 -0.166667  0.125000  0.250000      4.000000
  0.000000  0.250000  0.250000      4.000000
  0.166667  0.250000  0.250000      4.000000
  0.333333  0.250000  0.250000      4.000000
  0.500000  0.250000  0.250000      4.000000
 -0.333333  0.250000  0.250000      4.000000
 -0.166667  0.250000  0.250000      4.000000
  0.000000  0.375000  0.250000      4.000000
  0.166667  0.375000  0.250000      4.000000
  0.333333  0.375000  0.250000      4.000000
  0.500000  0.375000  0.250000      4.000000
 -0.333333  0.375000  0.250000      4.000000
 -0.166667  0.375000  0.250000      4.000000
  0.000000  0.500000  0.250000      2.000000
  0.166667  0.500000  0.250000      2.000000
  0.333333  0.500000  0.250000      2.000000
  0.500000  0.500000  0.250000      2.000000
 -0.333333  0.500000  0.250000      2.000000
 -0.166667  0.500000  0.250000      2.000000
  0.000000  0.000000  0.500000      1.000000
  0.166667  0.000000  0.500000      2.000000
  0.333333  0.000000  0.500000      2.000000
  0.500000  0.000000  0.500000      1.000000
  0.000000  0.125000  0.500000      2.000000
  0.166667  0.125000  0.500000      4.000000
  0.333333  0.125000  0.500000      4.000000
  0.500000  0.125000  0.500000      2.000000
  0.000000  0.250000  0.500000      2.000000
  0.166667  0.250000  0.500000      4.000000
  0.333333  0.250000  0.500000      4.000000
  0.500000  0.250000  0.500000      2.000000
  0.000000  0.375000  0.500000      2.000000
  0.166667  0.375000  0.500000      4.000000
  0.333333  0.375000  0.500000      4.000000
  0.500000  0.375000  0.500000      2.000000
  0.000000  0.500000  0.500000      1.000000
  0.166667  0.500000  0.500000      2.000000
  0.333333  0.500000  0.500000      2.000000
  0.500000  0.500000  0.500000      1.000000
 
 Following cartesian coordinates:
            Coordinates               Weight
  0.000000  0.000000  0.000000      1.000000
  0.029673  0.000000  0.000000      2.000000
  0.059346  0.000000  0.000000      2.000000
  0.089019  0.000000  0.000000      1.000000
  0.000000  0.029641  0.000000      2.000000
  0.029673  0.029641  0.000000      4.000000
  0.059346  0.029641  0.000000      4.000000
  0.089019  0.029641  0.000000      2.000000
  0.000000  0.059282  0.000000      2.000000
  0.029673  0.059282  0.000000      4.000000
  0.059346  0.059282  0.000000      4.000000
  0.089019  0.059282  0.000000      2.000000
  0.000000  0.088924  0.000000      2.000000
  0.029673  0.088924  0.000000      4.000000
  0.059346  0.088924  0.000000      4.000000
  0.089019  0.088924  0.000000      2.000000
  0.000000  0.118565  0.000000      1.000000
  0.029673  0.118565  0.000000      2.000000
  0.059346  0.118565  0.000000      2.000000
  0.089019  0.118565  0.000000      1.000000
  0.000000  0.000000  0.030385      2.000000
  0.029673  0.000000  0.030385      2.000000
  0.059346  0.000000  0.030385      2.000000
  0.089019  0.000000  0.030385      2.000000
 -0.059346  0.000000  0.030385      2.000000
 -0.029673  0.000000  0.030385      2.000000
  0.000000  0.029641  0.030385      4.000000
  0.029673  0.029641  0.030385      4.000000
  0.059346  0.029641  0.030385      4.000000
  0.089019  0.029641  0.030385      4.000000
 -0.059346  0.029641  0.030385      4.000000
 -0.029673  0.029641  0.030385      4.000000
  0.000000  0.059282  0.030385      4.000000
  0.029673  0.059282  0.030385      4.000000
  0.059346  0.059282  0.030385      4.000000
  0.089019  0.059282  0.030385      4.000000
 -0.059346  0.059282  0.030385      4.000000
 -0.029673  0.059282  0.030385      4.000000
  0.000000  0.088924  0.030385      4.000000
  0.029673  0.088924  0.030385      4.000000
  0.059346  0.088924  0.030385      4.000000
  0.089019  0.088924  0.030385      4.000000
 -0.059346  0.088924  0.030385      4.000000
 -0.029673  0.088924  0.030385      4.000000
  0.000000  0.118565  0.030385      2.000000
  0.029673  0.118565  0.030385      2.000000
  0.059346  0.118565  0.030385      2.000000
  0.089019  0.118565  0.030385      2.000000
 -0.059346  0.118565  0.030385      2.000000
 -0.029673  0.118565  0.030385      2.000000
  0.000000  0.000000  0.060770      1.000000
  0.029673  0.000000  0.060770      2.000000
  0.059346  0.000000  0.060770      2.000000
  0.089019  0.000000  0.060770      1.000000
  0.000000  0.029641  0.060770      2.000000
  0.029673  0.029641  0.060770      4.000000
  0.059346  0.029641  0.060770      4.000000
  0.089019  0.029641  0.060770      2.000000
  0.000000  0.059282  0.060770      2.000000
  0.029673  0.059282  0.060770      4.000000
  0.059346  0.059282  0.060770      4.000000
  0.089019  0.059282  0.060770      2.000000
  0.000000  0.088924  0.060770      2.000000
  0.029673  0.088924  0.060770      4.000000
  0.059346  0.088924  0.060770      4.000000
  0.089019  0.088924  0.060770      2.000000
  0.000000  0.118565  0.060770      1.000000
  0.029673  0.118565  0.060770      2.000000
  0.059346  0.118565  0.060770      2.000000
  0.089019  0.118565  0.060770      1.000000
 


--------------------------------------------------------------------------------------------------------




 Dimension of arrays:
   k-points           NKPTS =     70   k-points in BZ     NKDIM =     70   number of bands    NBANDS=     60
   number of dos      NEDOS =    301   number of ions     NIONS =     12
   non local maximal  LDIM  =      6   non local SUM 2l+1 LMDIM =     18
   total plane-waves  NPLWV =  34560
   max r-space proj   IRMAX =   3379   max aug-charges    IRDMAX=  20202
   dimension x,y,z NGX =    30 NGY =   24 NGZ =   48
   dimension x,y,z NGXF=    60 NGYF=   48 NGZF=   96
   support grid    NGXF=    60 NGYF=   48 NGZF=   96
   ions per type =               4   8
   NGX,Y,Z   is equivalent  to a cutoff of   8.88,  9.46,  9.70 a.u.
   NGXF,Y,Z  is equivalent  to a cutoff of  17.76, 18.92, 19.40 a.u.

 SYSTEM =  bulk                                    
 POSCAR =  Indium palladium (1/2)                  

 Startparameter for this run:
   NWRITE =      0    write-flag & timer
   PREC   = normal    normal or accurate (medium, high low for compatibility)
   ISTART =      0    job   : 0-new  1-cont  2-samecut
   ICHARG =      2    charge: 1-file 2-atom 10-const
   ISPIN  =      1    spin polarized calculation?
   LNONCOLLINEAR =      F non collinear calculations
   LSORBIT =      F    spin-orbit coupling
   INIWAV =      1    electr: 0-lowe 1-rand  2-diag
   LASPH  =      F    aspherical Exc in radial PAW
   METAGGA=      F    non-selfconsistent MetaGGA calc.

 Electronic Relaxation 1
   ENCUT  =  450.0 eV  33.07 Ry    5.75 a.u.   9.72  7.29 14.23*2*pi/ulx,y,z
   ENINI  =  450.0     initial cutoff
   ENAUG  =  416.2 eV  augmentation charge cutoff
   NELM   =    100;   NELMIN=  5; NELMDL= -7     # of ELM steps 
   EDIFF  = 0.1E-05   stopping-criterion for ELM
   LREAL  =      T    real-space projection
   NLSPLINE    = F    spline interpolate recip. space projectors
   LCOMPAT=      F    compatible to vasp.4.4
   GGA_COMPAT  = T    GGA compatible to vasp.4.4-vasp.4.6
   LMAXPAW     = -100 max onsite density
   LMAXMIX     =    2 max onsite mixed and CHGCAR
   VOSKOWN=      0    Vosko Wilk Nusair interpolation
   ROPT   =   -0.00050  -0.00050
 Ionic relaxation
   EDIFFG = -.2E-01   stopping-criterion for IOM
   NSW    =    100    number of steps for IOM
   NBLOCK =      1;   KBLOCK =    100    inner block; outer block 
   IBRION =      2    ionic relax: 0-MD 1-quasi-New 2-CG
   NFREE  =      2    steps in history (QN), initial steepest desc. (CG)
   ISIF   =      3    stress and relaxation
   IWAVPR =     11    prediction:  0-non 1-charg 2-wave 3-comb
   ISYM   =      2    0-nonsym 1-usesym 2-fastsym
   LCORR  =      T    Harris-Foulkes like correction to forces

   POTIM  = 0.1500    time-step for ionic-motion
   TEIN   =    0.0    initial temperature
   TEBEG  =    0.0;   TEEND  =   0.0 temperature during run
   SMASS  =  -3.00    Nose mass-parameter (am)
   estimated Nose-frequenzy (Omega)   =  0.10E-29 period in steps =****** mass=  -0.721E-27a.u.
   SCALEE = 1.0000    scale energy and forces
   NPACO  =    256;   APACO  = 16.0  distance and # of slots for P.C.
   PSTRESS=    0.0 pullay stress

  Mass of Ions in am
   POMASS = 114.82106.42
  Ionic Valenz
   ZVAL   =   3.00 10.00
  Atomic Wigner-Seitz radii
   RWIGS  =  -1.00 -1.00
  virtual crystal weights 
   VCA    =   1.00  1.00
   NELECT =      92.0000    total number of electrons
   NUPDOWN=      -1.0000    fix difference up-down

 DOS related values:
   EMIN   =  10.00;   EMAX   =-10.00  energy-range for DOS
   EFERMI =   0.00
   ISMEAR =     0;   SIGMA  =   0.03  broadening in eV -4-tet -1-fermi 0-gaus

 Electronic relaxation 2 (details)
   IALGO  =     68    algorithm
   LDIAG  =      T    sub-space diagonalisation (order eigenvalues)
   LSUBROT=      F    optimize rotation matrix (better conditioning)
   TURBO    =      0    0=normal 1=particle mesh
   IRESTART =      0    0=no restart 2=restart with 2 vectors
   NREBOOT  =      0    no. of reboots
   NMIN     =      0    reboot dimension
   EREF     =   0.00    reference energy to select bands
   IMIX   =      4    mixing-type and parameters
     AMIX     =   0.10;   BMIX     =  0.01
     AMIX_MAG =   0.40;   BMIX_MAG =  0.01
     AMIN     =   0.10
     WC   =   100.;   INIMIX=   1;  MIXPRE=   1;  MAXMIX= -45

 Intra band minimization:
   WEIMIN = 0.0010     energy-eigenvalue tresh-hold
   EBREAK =  0.42E-08  absolut break condition
   DEPER  =   0.30     relativ break condition  

   TIME   =   0.40     timestep for ELM

  volume/ion in A,a.u.               =      16.24       109.60
  Fermi-wavevector in a.u.,A,eV,Ry     =   1.274705  2.408843 22.107728  1.624872
  Thomas-Fermi vector in A             =   2.407458
 
 Write flags
   LWAVE        =      F    write WAVECAR
   LDOWNSAMPLE  =      F    k-point downsampling of WAVECAR
   LCHARG       =      F    write CHGCAR
   LVTOT        =      F    write LOCPOT, total local potential
   LVHAR        =      F    write LOCPOT, Hartree potential only
   LELF         =      F    write electronic localiz. function (ELF)
   LORBIT       =      0    0 simple, 1 ext, 2 COOP (PROOUT), +10 PAW based schemes


 Dipole corrections
   LMONO  =      F    monopole corrections only (constant potential shift)
   LDIPOL =      F    correct potential (dipole corrections)
   IDIPOL =      0    1-x, 2-y, 3-z, 4-all directions 
   EPSILON=  1.0000000 bulk dielectric constant

 Exchange correlation treatment:
   GGA     =    PE    GGA type
   LEXCH   =     8    internal setting for exchange type
   VOSKOWN=      0    Vosko Wilk Nusair interpolation
   LHFCALC =     F    Hartree Fock is set to
   LHFONE  =     F    Hartree Fock one center treatment
   AEXX    =    0.0000 exact exchange contribution

 Linear response parameters
   LEPSILON=     F    determine dielectric tensor
   LRPA    =     F    only Hartree local field effects (RPA)
   LNABLA  =     F    use nabla operator in PAW spheres
   LVEL    =     F    velocity operator in full k-point grid
   LINTERFAST=   F  fast interpolation
   KINTER  =     0    interpolate to denser k-point grid
   CSHIFT  =0.1000    complex shift for real part using Kramers Kronig
   OMEGAMAX=  -1.0    maximum frequency
   DEG_THRESHOLD= 0.2000000E-02 threshold for treating states as degnerate
   RTIME   =   -0.100 relaxation time in fs
  (WPLASMAI=    0.000 imaginary part of plasma frequency in eV, 0.658/RTIME)
   DFIELD  = 0.0000000 0.0000000 0.0000000 field for delta impulse in time
 
 Orbital magnetization related:
   ORBITALMAG=     F  switch on orbital magnetization
   LCHIMAG   =     F  perturbation theory with respect to B field
   DQ        =  0.001000  dq finite difference perturbation B field
   LLRAUG    =     F  two centre corrections for induced B field



--------------------------------------------------------------------------------------------------------


 conjugate gradient relaxation of ions
   using selective dynamics as specified on POSCAR
 charge density and potential will be updated during run
 non-spin polarized calculation
 RMM-DIIS sequential band-by-band and
  variant of blocked Davidson during initial phase
 perform sub-space diagonalisation
    before iterative eigenvector-optimisation
 modified Broyden-mixing scheme, WC =      100.0
 initial mixing is a Kerker type mixing with AMIX =  0.1000 and BMIX =      0.0100
 Hartree-type preconditioning will be used
 using additional bands           14
 real space projection scheme for non local part
 use partial core corrections
 calculate Harris-corrections to forces 
   (improved forces if not selfconsistent)
 use gradient corrections 
 use of overlap-Matrix (Vanderbilt PP)
 Gauss-broadening in eV      SIGMA  =   0.03


--------------------------------------------------------------------------------------------------------


  energy-cutoff  :      450.00
  volume of cell :      194.89
      direct lattice vectors                 reciprocal lattice vectors
     5.616759777  0.000000000  0.000000000     0.178038592  0.000000000  0.000000000
     0.000000000  4.217100143  0.000000000     0.000000000  0.237129773  0.000000000
     0.000000000  0.000000000  8.227800369     0.000000000  0.000000000  0.121539167

  length of vectors
     5.616759777  4.217100143  8.227800369     0.178038592  0.237129773  0.121539167


 
 k-points in units of 2pi/SCALE and weight: K-Points                                
   0.00000000  0.00000000  0.00000000       0.005
   0.02967310  0.00000000  0.00000000       0.010
   0.05934620  0.00000000  0.00000000       0.010
   0.08901930  0.00000000  0.00000000       0.005
   0.00000000  0.02964122  0.00000000       0.010
   0.02967310  0.02964122  0.00000000       0.021
   0.05934620  0.02964122  0.00000000       0.021
   0.08901930  0.02964122  0.00000000       0.010
   0.00000000  0.05928244  0.00000000       0.010
   0.02967310  0.05928244  0.00000000       0.021
   0.05934620  0.05928244  0.00000000       0.021
   0.08901930  0.05928244  0.00000000       0.010
   0.00000000  0.08892366  0.00000000       0.010
   0.02967310  0.08892366  0.00000000       0.021
   0.05934620  0.08892366  0.00000000       0.021
   0.08901930  0.08892366  0.00000000       0.010
   0.00000000  0.11856489  0.00000000       0.005
   0.02967310  0.11856489  0.00000000       0.010
   0.05934620  0.11856489  0.00000000       0.010
   0.08901930  0.11856489  0.00000000       0.005
   0.00000000  0.00000000  0.03038479       0.010
   0.02967310  0.00000000  0.03038479       0.010
   0.05934620  0.00000000  0.03038479       0.010
   0.08901930  0.00000000  0.03038479       0.010
  -0.05934620  0.00000000  0.03038479       0.010
  -0.02967310  0.00000000  0.03038479       0.010
   0.00000000  0.02964122  0.03038479       0.021
   0.02967310  0.02964122  0.03038479       0.021
   0.05934620  0.02964122  0.03038479       0.021
   0.08901930  0.02964122  0.03038479       0.021
  -0.05934620  0.02964122  0.03038479       0.021
  -0.02967310  0.02964122  0.03038479       0.021
   0.00000000  0.05928244  0.03038479       0.021
   0.02967310  0.05928244  0.03038479       0.021
   0.05934620  0.05928244  0.03038479       0.021
   0.08901930  0.05928244  0.03038479       0.021
  -0.05934620  0.05928244  0.03038479       0.021
  -0.02967310  0.05928244  0.03038479       0.021
   0.00000000  0.08892366  0.03038479       0.021
   0.02967310  0.08892366  0.03038479       0.021
   0.05934620  0.08892366  0.03038479       0.021
   0.08901930  0.08892366  0.03038479       0.021
  -0.05934620  0.08892366  0.03038479       0.021
  -0.02967310  0.08892366  0.03038479       0.021
   0.00000000  0.11856489  0.03038479       0.010
   0.02967310  0.11856489  0.03038479       0.010
   0.05934620  0.11856489  0.03038479       0.010
   0.08901930  0.11856489  0.03038479       0.010
  -0.05934620  0.11856489  0.03038479       0.010
  -0.02967310  0.11856489  0.03038479       0.010
   0.00000000  0.00000000  0.06076958       0.005
   0.02967310  0.00000000  0.06076958       0.010
   0.05934620  0.00000000  0.06076958       0.010
   0.08901930  0.00000000  0.06076958       0.005
   0.00000000  0.02964122  0.06076958       0.010
   0.02967310  0.02964122  0.06076958       0.021
   0.05934620  0.02964122  0.06076958       0.021
   0.08901930  0.02964122  0.06076958       0.010
   0.00000000  0.05928244  0.06076958       0.010
   0.02967310  0.05928244  0.06076958       0.021
   0.05934620  0.05928244  0.06076958       0.021
   0.08901930  0.05928244  0.06076958       0.010
   0.00000000  0.08892366  0.06076958       0.010
   0.02967310  0.08892366  0.06076958       0.021
   0.05934620  0.08892366  0.06076958       0.021
   0.08901930  0.08892366  0.06076958       0.010
   0.00000000  0.11856489  0.06076958       0.005
   0.02967310  0.11856489  0.06076958       0.010
   0.05934620  0.11856489  0.06076958       0.010
   0.08901930  0.11856489  0.06076958       0.005
 
 k-points in reciprocal lattice and weights: K-Points                                
   0.00000000  0.00000000  0.00000000       0.005
   0.16666667  0.00000000  0.00000000       0.010
   0.33333333  0.00000000  0.00000000       0.010
   0.50000000  0.00000000  0.00000000       0.005
   0.00000000  0.12500000  0.00000000       0.010
   0.16666667  0.12500000  0.00000000       0.021
   0.33333333  0.12500000  0.00000000       0.021
   0.50000000  0.12500000  0.00000000       0.010
   0.00000000  0.25000000  0.00000000       0.010
   0.16666667  0.25000000  0.00000000       0.021
   0.33333333  0.25000000  0.00000000       0.021
   0.50000000  0.25000000  0.00000000       0.010
   0.00000000  0.37500000  0.00000000       0.010
   0.16666667  0.37500000  0.00000000       0.021
   0.33333333  0.37500000  0.00000000       0.021
   0.50000000  0.37500000  0.00000000       0.010
   0.00000000  0.50000000  0.00000000       0.005
   0.16666667  0.50000000  0.00000000       0.010
   0.33333333  0.50000000  0.00000000       0.010
   0.50000000  0.50000000  0.00000000       0.005
   0.00000000  0.00000000  0.25000000       0.010
   0.16666667  0.00000000  0.25000000       0.010
   0.33333333  0.00000000  0.25000000       0.010
   0.50000000  0.00000000  0.25000000       0.010
  -0.33333333  0.00000000  0.25000000       0.010
  -0.16666667  0.00000000  0.25000000       0.010
   0.00000000  0.12500000  0.25000000       0.021
   0.16666667  0.12500000  0.25000000       0.021
   0.33333333  0.12500000  0.25000000       0.021
   0.50000000  0.12500000  0.25000000       0.021
  -0.33333333  0.12500000  0.25000000       0.021
  -0.16666667  0.12500000  0.25000000       0.021
   0.00000000  0.25000000  0.25000000       0.021
   0.16666667  0.25000000  0.25000000       0.021
   0.33333333  0.25000000  0.25000000       0.021
   0.50000000  0.25000000  0.25000000       0.021
  -0.33333333  0.25000000  0.25000000       0.021
  -0.16666667  0.25000000  0.25000000       0.021
   0.00000000  0.37500000  0.25000000       0.021
   0.16666667  0.37500000  0.25000000       0.021
   0.33333333  0.37500000  0.25000000       0.021
   0.50000000  0.37500000  0.25000000       0.021
  -0.33333333  0.37500000  0.25000000       0.021
  -0.16666667  0.37500000  0.25000000       0.021
   0.00000000  0.50000000  0.25000000       0.010
   0.16666667  0.50000000  0.25000000       0.010
   0.33333333  0.50000000  0.25000000       0.010
   0.50000000  0.50000000  0.25000000       0.010
  -0.33333333  0.50000000  0.25000000       0.010
  -0.16666667  0.50000000  0.25000000       0.010
   0.00000000  0.00000000  0.50000000       0.005
   0.16666667  0.00000000  0.50000000       0.010
   0.33333333  0.00000000  0.50000000       0.010
   0.50000000  0.00000000  0.50000000       0.005
   0.00000000  0.12500000  0.50000000       0.010
   0.16666667  0.12500000  0.50000000       0.021
   0.33333333  0.12500000  0.50000000       0.021
   0.50000000  0.12500000  0.50000000       0.010
   0.00000000  0.25000000  0.50000000       0.010
   0.16666667  0.25000000  0.50000000       0.021
   0.33333333  0.25000000  0.50000000       0.021
   0.50000000  0.25000000  0.50000000       0.010
   0.00000000  0.37500000  0.50000000       0.010
   0.16666667  0.37500000  0.50000000       0.021
   0.33333333  0.37500000  0.50000000       0.021
   0.50000000  0.37500000  0.50000000       0.010
   0.00000000  0.50000000  0.50000000       0.005
   0.16666667  0.50000000  0.50000000       0.010
   0.33333333  0.50000000  0.50000000       0.010
   0.50000000  0.50000000  0.50000000       0.005
 
 position of ions in fractional coordinates (direct lattice) 
   0.82220000  0.25000000  0.39890000
   0.17780000  0.75000000  0.60109997
   0.67780000  0.75000000  0.89890003
   0.32220000  0.25000000  0.10110000
   0.83999997  0.25000000  0.07230000
   0.16000003  0.75000000  0.92769998
   0.66000003  0.75000000  0.57230002
   0.33999997  0.25000000  0.42769998
   0.93290001  0.25000000  0.73180002
   0.06709999  0.75000000  0.26819998
   0.56709999  0.75000000  0.23180002
   0.43290001  0.25000000  0.76819998
 
 position of ions in cartesian coordinates  (Angst):
   4.61809989  1.05427504  3.28206958
   0.99865989  3.16282511  4.94573054
   3.80703978  3.16282511  7.39597002
   1.80972000  1.05427504  0.83183060
   4.71807807  1.05427504  0.59486998
   0.89868171  3.16282511  7.63293026
   3.70706160  3.16282511  4.70877029
   1.90969818  1.05427504  3.51903008
   5.23987526  1.05427504  6.02110447
   0.37688451  3.16282511  2.20669589
   3.18526440  3.16282511  1.90720429
   2.43149537  1.05427504  6.32059608
 


--------------------------------------------------------------------------------------------------------


 k-point  1 :   0.0000 0.0000 0.0000  plane waves:    4233
 k-point  2 :   0.1667 0.0000 0.0000  plane waves:    4213
 k-point  3 :   0.3333 0.0000 0.0000  plane waves:    4242
 k-point  4 :   0.5000 0.0000 0.0000  plane waves:    4220
 k-point  5 :   0.0000 0.1250 0.0000  plane waves:    4221
 k-point  6 :   0.1667 0.1250 0.0000  plane waves:    4223
 k-point  7 :   0.3333 0.1250 0.0000  plane waves:    4233
 k-point  8 :   0.5000 0.1250 0.0000  plane waves:    4236
 k-point  9 :   0.0000 0.2500 0.0000  plane waves:    4201
 k-point 10 :   0.1667 0.2500 0.0000  plane waves:    4216
 k-point 11 :   0.3333 0.2500 0.0000  plane waves:    4228
 k-point 12 :   0.5000 0.2500 0.0000  plane waves:    4232
 k-point 13 :   0.0000 0.3750 0.0000  plane waves:    4220
 k-point 14 :   0.1667 0.3750 0.0000  plane waves:    4218
 k-point 15 :   0.3333 0.3750 0.0000  plane waves:    4210
 k-point 16 :   0.5000 0.3750 0.0000  plane waves:    4232
 k-point 17 :   0.0000 0.5000 0.0000  plane waves:    4262
 k-point 18 :   0.1667 0.5000 0.0000  plane waves:    4232
 k-point 19 :   0.3333 0.5000 0.0000  plane waves:    4234
 k-point 20 :   0.5000 0.5000 0.0000  plane waves:    4192
 k-point 21 :   0.0000 0.0000 0.2500  plane waves:    4232
 k-point 22 :   0.1667 0.0000 0.2500  plane waves:    4228
 k-point 23 :   0.3333 0.0000 0.2500  plane waves:    4225
 k-point 24 :   0.5000 0.0000 0.2500  plane waves:    4232
 k-point 25 :  -0.3333 0.0000 0.2500  plane waves:    4225
 k-point 26 :  -0.1667 0.0000 0.2500  plane waves:    4228
 k-point 27 :   0.0000 0.1250 0.2500  plane waves:    4227
 k-point 28 :   0.1667 0.1250 0.2500  plane waves:    4226
 k-point 29 :   0.3333 0.1250 0.2500  plane waves:    4219
 k-point 30 :   0.5000 0.1250 0.2500  plane waves:    4228
 k-point 31 :  -0.3333 0.1250 0.2500  plane waves:    4219
 k-point 32 :  -0.1667 0.1250 0.2500  plane waves:    4226
 k-point 33 :   0.0000 0.2500 0.2500  plane waves:    4218
 k-point 34 :   0.1667 0.2500 0.2500  plane waves:    4221
 k-point 35 :   0.3333 0.2500 0.2500  plane waves:    4218
 k-point 36 :   0.5000 0.2500 0.2500  plane waves:    4220
 k-point 37 :  -0.3333 0.2500 0.2500  plane waves:    4218
 k-point 38 :  -0.1667 0.2500 0.2500  plane waves:    4221
 k-point 39 :   0.0000 0.3750 0.2500  plane waves:    4228
 k-point 40 :   0.1667 0.3750 0.2500  plane waves:    4221
 k-point 41 :   0.3333 0.3750 0.2500  plane waves:    4225
 k-point 42 :   0.5000 0.3750 0.2500  plane waves:    4222
 k-point 43 :  -0.3333 0.3750 0.2500  plane waves:    4225
 k-point 44 :  -0.1667 0.3750 0.2500  plane waves:    4221
 k-point 45 :   0.0000 0.5000 0.2500  plane waves:    4240
 k-point 46 :   0.1667 0.5000 0.2500  plane waves:    4230
 k-point 47 :   0.3333 0.5000 0.2500  plane waves:    4220
 k-point 48 :   0.5000 0.5000 0.2500  plane waves:    4212
 k-point 49 :  -0.3333 0.5000 0.2500  plane waves:    4220
 k-point 50 :  -0.1667 0.5000 0.2500  plane waves:    4230
 k-point 51 :   0.0000 0.0000 0.5000  plane waves:    4244
 k-point 52 :   0.1667 0.0000 0.5000  plane waves:    4220
 k-point 53 :   0.3333 0.0000 0.5000  plane waves:    4228
 k-point 54 :   0.5000 0.0000 0.5000  plane waves:    4264
 k-point 55 :   0.0000 0.1250 0.5000  plane waves:    4238
 k-point 56 :   0.1667 0.1250 0.5000  plane waves:    4232
 k-point 57 :   0.3333 0.1250 0.5000  plane waves:    4224
 k-point 58 :   0.5000 0.1250 0.5000  plane waves:    4248
 k-point 59 :   0.0000 0.2500 0.5000  plane waves:    4220
 k-point 60 :   0.1667 0.2500 0.5000  plane waves:    4228
 k-point 61 :   0.3333 0.2500 0.5000  plane waves:    4224
 k-point 62 :   0.5000 0.2500 0.5000  plane waves:    4232
 k-point 63 :   0.0000 0.3750 0.5000  plane waves:    4242
 k-point 64 :   0.1667 0.3750 0.5000  plane waves:    4226
 k-point 65 :   0.3333 0.3750 0.5000  plane waves:    4218
 k-point 66 :   0.5000 0.3750 0.5000  plane waves:    4220
 k-point 67 :   0.0000 0.5000 0.5000  plane waves:    4228
 k-point 68 :   0.1667 0.5000 0.5000  plane waves:    4216
 k-point 69 :   0.3333 0.5000 0.5000  plane waves:    4184
 k-point 70 :   0.5000 0.5000 0.5000  plane waves:    4224

 maximum and minimum number of plane-waves per node :      4264     4184

 maximum number of plane-waves:      4264
 maximum index in each direction: 
   IXMAX=   10   IYMAX=    7   IZMAX=   14
   IXMIN=  -10   IYMIN=   -7   IZMIN=  -14


 serial   3D FFT for wavefunctions
 parallel 3D FFT for charge:
    minimum data exchange during FFTs selected (reduces bandwidth)


 total amount of memory used by VASP MPI-rank0    63928. kBytes
=======================================================================

   base      :      30000. kBytes
   nonlr-proj:       5038. kBytes
   fftplans  :        936. kBytes
   grid      :       2703. kBytes
   one-center:        186. kBytes
   wavefun   :      25065. kBytes
 
     INWAV:  cpu time    0.0000: real time    0.0001
 Broyden mixing: mesh for mixing (old mesh)
   NGX = 19   NGY = 15   NGZ = 29
  (NGX  = 60   NGY  = 48   NGZ  = 96)
  gives a total of   8265 points

 initial charge density was supplied:
 charge density of overlapping atoms calculated
 number of electron      92.0000000 magnetization 
 keeping initial charge density in first step


--------------------------------------------------------------------------------------------------------


 Maximum index for non-local projection operator         3236
 Maximum index for augmentation-charges         1683 (set IRDMAX)


--------------------------------------------------------------------------------------------------------


 First call to EWALD:  gamma=   0.306
 Maximum number of real-space cells 3x 4x 2
 Maximum number of reciprocal cells 3x 2x 4

    FEWALD:  cpu time    0.0020: real time    0.0020


--------------------------------------- Iteration      1(   1)  ---------------------------------------


    POTLOK:  cpu time    0.0270: real time    0.0280
    SETDIJ:  cpu time    0.0090: real time    0.0095
     EDDAV:  cpu time   12.0382: real time   12.1861
       DOS:  cpu time    0.0030: real time    0.0027
    --------------------------------------------
      LOOP:  cpu time   12.0772: real time   12.2264

 eigenvalue-minimisations  :  8400
 total energy-change (2. order) : 0.5086108E+03  (-0.3974113E+04)
 number of electron      92.0000000 magnetization 
 augmentation part       92.0000000 magnetization 

 Free energy of the ion-electron system (eV)
  ---------------------------------------------------
  alpha Z        PSCENC =       244.15143891
  Ewald energy   TEWEN  =     -6351.20328207
  -Hartree energ DENC   =     -1501.68061469
  -exchange      EXHF   =         0.00000000
  -V(xc)+E(xc)   XCENC  =      -455.30082249
  PAW double counting   =      6830.79749290    -6095.50152480
  entropy T*S    EENTRO =        -0.00179637
  eigenvalues    EBANDS =      1144.20381805
  atomic energy  EATOM  =      6693.14607468
  Solvation  Ediel_sol  =         0.00000000
  ---------------------------------------------------
  free energy    TOTEN  =       508.61078412 eV

  energy without entropy =      508.61258050  energy(sigma->0) =      508.61168231


--------------------------------------------------------------------------------------------------------




--------------------------------------- Iteration      1(   2)  ---------------------------------------


     EDDAV:  cpu time   12.9420: real time   13.0854
       DOS:  cpu time    0.0030: real time    0.0026
    --------------------------------------------
      LOOP:  cpu time   12.9450: real time   13.0880

 eigenvalue-minimisations  :  9240
 total energy-change (2. order) :-0.5512649E+03  (-0.5231934E+03)
 number of electron      92.0000000 magnetization 
 augmentation part       92.0000000 magnetization 

 Free energy of the ion-electron system (eV)
  ---------------------------------------------------
  alpha Z        PSCENC =       244.15143891
  Ewald energy   TEWEN  =     -6351.20328207
  -Hartree energ DENC   =     -1501.68061469
  -exchange      EXHF   =         0.00000000
  -V(xc)+E(xc)   XCENC  =      -455.30082249
  PAW double counting   =      6830.79749290    -6095.50152480
  entropy T*S    EENTRO =        -0.00255991
  eigenvalues    EBANDS =       592.93964256
  atomic energy  EATOM  =      6693.14607468
  Solvation  Ediel_sol  =         0.00000000
  ---------------------------------------------------
  free energy    TOTEN  =       -42.65415490 eV

  energy without entropy =      -42.65159500  energy(sigma->0) =      -42.65287495


--------------------------------------------------------------------------------------------------------




--------------------------------------- Iteration      1(   3)  ---------------------------------------


     EDDAV:  cpu time   13.6889: real time   13.8493
       DOS:  cpu time    0.0020: real time    0.0027
    --------------------------------------------
      LOOP:  cpu time   13.6909: real time   13.8520

 eigenvalue-minimisations  :  9888
 total energy-change (2. order) :-0.1702281E+02  (-0.1670030E+02)
 number of electron      92.0000000 magnetization 
 augmentation part       92.0000000 magnetization 

 Free energy of the ion-electron system (eV)
  ---------------------------------------------------
  alpha Z        PSCENC =       244.15143891
  Ewald energy   TEWEN  =     -6351.20328207
  -Hartree energ DENC   =     -1501.68061469
  -exchange      EXHF   =         0.00000000
  -V(xc)+E(xc)   XCENC  =      -455.30082249
  PAW double counting   =      6830.79749290    -6095.50152480
  entropy T*S    EENTRO =        -0.00411148
  eigenvalues    EBANDS =       575.91838043
  atomic energy  EATOM  =      6693.14607468
  Solvation  Ediel_sol  =         0.00000000
  ---------------------------------------------------
  free energy    TOTEN  =       -59.67696860 eV

  energy without entropy =      -59.67285712  energy(sigma->0) =      -59.67491286


--------------------------------------------------------------------------------------------------------




--------------------------------------- Iteration      1(   4)  ---------------------------------------


     EDDAV:  cpu time   12.7691: real time   12.9206
       DOS:  cpu time    0.0030: real time    0.0028
    --------------------------------------------
      LOOP:  cpu time   12.7721: real time   12.9234

 eigenvalue-minimisations  :  9072
 total energy-change (2. order) :-0.1897228E+00  (-0.1896446E+00)
 number of electron      92.0000000 magnetization 
 augmentation part       92.0000000 magnetization 

 Free energy of the ion-electron system (eV)
  ---------------------------------------------------
  alpha Z        PSCENC =       244.15143891
  Ewald energy   TEWEN  =     -6351.20328207
  -Hartree energ DENC   =     -1501.68061469
  -exchange      EXHF   =         0.00000000
  -V(xc)+E(xc)   XCENC  =      -455.30082249
  PAW double counting   =      6830.79749290    -6095.50152480
  entropy T*S    EENTRO =        -0.00414966
  eigenvalues    EBANDS =       575.72869578
  atomic energy  EATOM  =      6693.14607468
  Solvation  Ediel_sol  =         0.00000000
  ---------------------------------------------------
  free energy    TOTEN  =       -59.86669143 eV

  energy without entropy =      -59.86254177  energy(sigma->0) =      -59.86461660


--------------------------------------------------------------------------------------------------------




--------------------------------------- Iteration      1(   5)  ---------------------------------------


     EDDAV:  cpu time   13.7649: real time   13.9272
       DOS:  cpu time    0.0030: real time    0.0028
    --------------------------------------------
      LOOP:  cpu time   13.7679: real time   13.9300

 eigenvalue-minimisations  :  9888
 total energy-change (2. order) :-0.3265991E-02  (-0.3265781E-02)
 number of electron      92.0000000 magnetization 
 augmentation part       92.0000000 magnetization 

 Free energy of the ion-electron system (eV)
  ---------------------------------------------------
  alpha Z        PSCENC =       244.15143891
  Ewald energy   TEWEN  =     -6351.20328207
  -Hartree energ DENC   =     -1501.68061469
  -exchange      EXHF   =         0.00000000
  -V(xc)+E(xc)   XCENC  =      -455.30082249
  PAW double counting   =      6830.79749290    -6095.50152480
  entropy T*S    EENTRO =        -0.00415034
  eigenvalues    EBANDS =       575.72543048
  atomic energy  EATOM  =      6693.14607468
  Solvation  Ediel_sol  =         0.00000000
  ---------------------------------------------------
  free energy    TOTEN  =       -59.86995742 eV

  energy without entropy =      -59.86580708  energy(sigma->0) =      -59.86788225


--------------------------------------------------------------------------------------------------------




--------------------------------------- Iteration      1(   6)  ---------------------------------------


     EDDAV:  cpu time   12.9870: real time   13.1385
       DOS:  cpu time    0.0030: real time    0.0028
    --------------------------------------------
      LOOP:  cpu time   12.9900: real time   13.1413

 eigenvalue-minimisations  :  9252
 total energy-change (2. order) :-0.9610169E-04  (-0.9610220E-04)
 number of electron      92.0000000 magnetization 
 augmentation part       92.0000000 magnetization 

 Free energy of the ion-electron system (eV)
  ---------------------------------------------------
  alpha Z        PSCENC =       244.15143891
  Ewald energy   TEWEN  =     -6351.20328207
  -Hartree energ DENC   =     -1501.68061469
  -exchange      EXHF   =         0.00000000
  -V(xc)+E(xc)   XCENC  =      -455.30082249
  PAW double counting   =      6830.79749290    -6095.50152480
  entropy T*S    EENTRO =        -0.00415036
  eigenvalues    EBANDS =       575.72533440
  atomic energy  EATOM  =      6693.14607468
  Solvation  Ediel_sol  =         0.00000000
  ---------------------------------------------------
  free energy    TOTEN  =       -59.87005352 eV

  energy without entropy =      -59.86590316  energy(sigma->0) =      -59.86797834


--------------------------------------------------------------------------------------------------------




--------------------------------------- Iteration      1(   7)  ---------------------------------------


     EDDAV:  cpu time   13.7229: real time   13.8829
       DOS:  cpu time    0.0020: real time    0.0028
    CHARGE:  cpu time    0.3170: real time    0.3175
    MIXING:  cpu time    0.0010: real time    0.0009
    --------------------------------------------
      LOOP:  cpu time   14.0429: real time   14.2041

 eigenvalue-minimisations  :  9876
 total energy-change (2. order) :-0.3357866E-05  (-0.3357783E-05)
 number of electron      91.9999964 magnetization 
 augmentation part       30.0695153 magnetization 

 Broyden mixing:
  rms(total) = 0.18008E+01    rms(broyden)= 0.18008E+01
  rms(prec ) = 0.19804E+01
  weight for this iteration     100.00

 Free energy of the ion-electron system (eV)
  ---------------------------------------------------
  alpha Z        PSCENC =       244.15143891
  Ewald energy   TEWEN  =     -6351.20328207
  -Hartree energ DENC   =     -1501.68061469
  -exchange      EXHF   =         0.00000000
  -V(xc)+E(xc)   XCENC  =      -455.30082249
  PAW double counting   =      6830.79749290    -6095.50152480
  entropy T*S    EENTRO =        -0.00415036
  eigenvalues    EBANDS =       575.72533104
  atomic energy  EATOM  =      6693.14607468
  Solvation  Ediel_sol  =         0.00000000
  ---------------------------------------------------
  free energy    TOTEN  =       -59.87005688 eV

  energy without entropy =      -59.86590652  energy(sigma->0) =      -59.86798170


--------------------------------------------------------------------------------------------------------




--------------------------------------- Iteration      1(   8)  ---------------------------------------


    POTLOK:  cpu time    0.0230: real time    0.0228
    SETDIJ:  cpu time    0.0080: real time    0.0078
    EDDIAG:  cpu time    1.5588: real time    1.5870
  RMM-DIIS:  cpu time    5.8261: real time    5.8860
    ORTHCH:  cpu time    0.2370: real time    0.2462
       DOS:  cpu time    0.0030: real time    0.0026
    CHARGE:  cpu time    0.3150: real time    0.3155
    MIXING:  cpu time    0.0010: real time    0.0010
    --------------------------------------------
      LOOP:  cpu time    7.9718: real time    8.0690

 eigenvalue-minimisations  :  8400
 total energy-change (2. order) : 0.6312080E+00  (-0.3379845E-01)
 number of electron      91.9999964 magnetization 
 augmentation part       30.4757527 magnetization 

 Broyden mixing:
  rms(total) = 0.15307E+01    rms(broyden)= 0.15307E+01
  rms(prec ) = 0.16503E+01
  weight for this iteration     100.00

 eigenvalues of (default mixing * dielectric matrix)
  average eigenvalue GAMMA=   5.5913
  5.5913

 Free energy of the ion-electron system (eV)
  ---------------------------------------------------
  alpha Z        PSCENC =       244.15143891
  Ewald energy   TEWEN  =     -6351.20328207
  -Hartree energ DENC   =     -1487.55851882
  -exchange      EXHF   =         0.00000000
  -V(xc)+E(xc)   XCENC  =      -455.53917454
  PAW double counting   =      7002.46928593    -6269.44854587
  entropy T*S    EENTRO =        -0.00355619
  eigenvalues    EBANDS =       564.74742908
  atomic energy  EATOM  =      6693.14607468
  Solvation  Ediel_sol  =         0.00000000
  ---------------------------------------------------
  free energy    TOTEN  =       -59.23884890 eV

  energy without entropy =      -59.23529270  energy(sigma->0) =      -59.23707080


--------------------------------------------------------------------------------------------------------




--------------------------------------- Iteration      1(   9)  ---------------------------------------


    POTLOK:  cpu time    0.0230: real time    0.0241
    SETDIJ:  cpu time    0.0080: real time    0.0078
    EDDIAG:  cpu time    1.5588: real time    1.5793
  RMM-DIIS:  cpu time    5.8311: real time    5.9017
    ORTHCH:  cpu time    0.2390: real time    0.2478
       DOS:  cpu time    0.0030: real time    0.0026
    CHARGE:  cpu time    0.3160: real time    0.3166
    MIXING:  cpu time    0.0010: real time    0.0009
    --------------------------------------------
      LOOP:  cpu time    7.9798: real time    8.0808

 eigenvalue-minimisations  :  8400
 total energy-change (2. order) : 0.8288496E+00  (-0.3463033E+00)
 number of electron      91.9999963 magnetization 
 augmentation part       31.6747062 magnetization 

 Broyden mixing:
  rms(total) = 0.69399E+00    rms(broyden)= 0.69398E+00
  rms(prec ) = 0.75040E+00
  weight for this iteration     100.00

 eigenvalues of (default mixing * dielectric matrix)
  average eigenvalue GAMMA=   5.0610
  2.0113  8.1108

 Free energy of the ion-electron system (eV)
  ---------------------------------------------------
  alpha Z        PSCENC =       244.15143891
  Ewald energy   TEWEN  =     -6351.20328207
  -Hartree energ DENC   =     -1444.10788679
  -exchange      EXHF   =         0.00000000
  -V(xc)+E(xc)   XCENC  =      -456.00435652
  PAW double counting   =      7927.57070446    -7203.49632916
  entropy T*S    EENTRO =        -0.00275586
  eigenvalues    EBANDS =       531.53639307
  atomic energy  EATOM  =      6693.14607468
  Solvation  Ediel_sol  =         0.00000000
  ---------------------------------------------------
  free energy    TOTEN  =       -58.40999928 eV

  energy without entropy =      -58.40724342  energy(sigma->0) =      -58.40862135


--------------------------------------------------------------------------------------------------------




--------------------------------------- Iteration      1(  10)  ---------------------------------------


    POTLOK:  cpu time    0.0220: real time    0.0227
    SETDIJ:  cpu time    0.0080: real time    0.0077
    EDDIAG:  cpu time    1.5598: real time    1.5798
  RMM-DIIS:  cpu time    5.8061: real time    5.8740
    ORTHCH:  cpu time    0.2380: real time    0.2463
       DOS:  cpu time    0.0020: real time    0.0026
    CHARGE:  cpu time    0.3150: real time    0.3160
    MIXING:  cpu time    0.0010: real time    0.0010
    --------------------------------------------
      LOOP:  cpu time    7.9518: real time    8.0501

 eigenvalue-minimisations  :  8400
 total energy-change (2. order) : 0.2668983E+00  (-0.2831320E-01)
 number of electron      91.9999963 magnetization 
 augmentation part       31.4061746 magnetization 

 Broyden mixing:
  rms(total) = 0.20304E+00    rms(broyden)= 0.20304E+00
  rms(prec ) = 0.24303E+00
  weight for this iteration     100.00

 eigenvalues of (default mixing * dielectric matrix)
  average eigenvalue GAMMA=   4.0858
  8.1083  1.2764  2.8726

 Free energy of the ion-electron system (eV)
  ---------------------------------------------------
  alpha Z        PSCENC =       244.15143891
  Ewald energy   TEWEN  =     -6351.20328207
  -Hartree energ DENC   =     -1448.42793991
  -exchange      EXHF   =         0.00000000
  -V(xc)+E(xc)   XCENC  =      -455.24933512
  PAW double counting   =      8859.19486393    -8140.71274093
  entropy T*S    EENTRO =        -0.00250315
  eigenvalues    EBANDS =       540.96032268
  atomic energy  EATOM  =      6693.14607468
  Solvation  Ediel_sol  =         0.00000000
  ---------------------------------------------------
  free energy    TOTEN  =       -58.14310098 eV

  energy without entropy =      -58.14059783  energy(sigma->0) =      -58.14184941


--------------------------------------------------------------------------------------------------------




--------------------------------------- Iteration      1(  11)  ---------------------------------------


    POTLOK:  cpu time    0.0230: real time    0.0228
    SETDIJ:  cpu time    0.0080: real time    0.0078
    EDDIAG:  cpu time    1.5608: real time    1.5810
  RMM-DIIS:  cpu time    5.9121: real time    5.9794
    ORTHCH:  cpu time    0.2370: real time    0.2463
       DOS:  cpu time    0.0030: real time    0.0027
    CHARGE:  cpu time    0.3150: real time    0.3153
    MIXING:  cpu time    0.0010: real time    0.0010
    --------------------------------------------
      LOOP:  cpu time    8.0598: real time    8.1563

 eigenvalue-minimisations  :  8400
 total energy-change (2. order) : 0.3712228E-01  (-0.1406048E-01)
 number of electron      91.9999963 magnetization 
 augmentation part       31.1378599 magnetization 

 Broyden mixing:
  rms(total) = 0.13507E+00    rms(broyden)= 0.13507E+00
  rms(prec ) = 0.14467E+00
  weight for this iteration     100.00

 eigenvalues of (default mixing * dielectric matrix)
  average eigenvalue GAMMA=   4.5138
  7.1069  7.1069  0.9829  2.8587

 Free energy of the ion-electron system (eV)
  ---------------------------------------------------
  alpha Z        PSCENC =       244.15143891
  Ewald energy   TEWEN  =     -6351.20328207
  -Hartree energ DENC   =     -1456.19033493
  -exchange      EXHF   =         0.00000000
  -V(xc)+E(xc)   XCENC  =      -455.01504189
  PAW double counting   =      8905.25196645    -8186.77232719
  entropy T*S    EENTRO =        -0.00250844
  eigenvalues    EBANDS =       548.52803578
  atomic energy  EATOM  =      6693.14607468
  Solvation  Ediel_sol  =         0.00000000
  ---------------------------------------------------
  free energy    TOTEN  =       -58.10597871 eV

  energy without entropy =      -58.10347026  energy(sigma->0) =      -58.10472449


--------------------------------------------------------------------------------------------------------




--------------------------------------- Iteration      1(  12)  ---------------------------------------


    POTLOK:  cpu time    0.0220: real time    0.0228
    SETDIJ:  cpu time    0.0080: real time    0.0078
    EDDIAG:  cpu time    1.5608: real time    1.5811
  RMM-DIIS:  cpu time    5.8021: real time    5.8694
    ORTHCH:  cpu time    0.2380: real time    0.2469
       DOS:  cpu time    0.0030: real time    0.0024
    CHARGE:  cpu time    0.3130: real time    0.3137
    MIXING:  cpu time    0.0010: real time    0.0011
    --------------------------------------------
      LOOP:  cpu time    7.9478: real time    8.0452

 eigenvalue-minimisations  :  8400
 total energy-change (2. order) : 0.1002055E-01  (-0.3246074E-02)
 number of electron      91.9999963 magnetization 
 augmentation part       31.1777513 magnetization 

 Broyden mixing:
  rms(total) = 0.88369E-01    rms(broyden)= 0.88369E-01
  rms(prec ) = 0.90964E-01
  weight for this iteration     100.00

 eigenvalues of (default mixing * dielectric matrix)
  average eigenvalue GAMMA=   4.1819
  9.9318  4.9398  1.0150  2.5116  2.5116

 Free energy of the ion-electron system (eV)
  ---------------------------------------------------
  alpha Z        PSCENC =       244.15143891
  Ewald energy   TEWEN  =     -6351.20328207
  -Hartree energ DENC   =     -1454.58731583
  -exchange      EXHF   =         0.00000000
  -V(xc)+E(xc)   XCENC  =      -455.05592824
  PAW double counting   =      8960.47511394    -8242.41001627
  entropy T*S    EENTRO =        -0.00256283
  eigenvalues    EBANDS =       547.39051955
  atomic energy  EATOM  =      6693.14607468
  Solvation  Ediel_sol  =         0.00000000
  ---------------------------------------------------
  free energy    TOTEN  =       -58.09595815 eV

  energy without entropy =      -58.09339532  energy(sigma->0) =      -58.09467674


--------------------------------------------------------------------------------------------------------




--------------------------------------- Iteration      1(  13)  ---------------------------------------


    POTLOK:  cpu time    0.0230: real time    0.0238
    SETDIJ:  cpu time    0.0080: real time    0.0078
    EDDIAG:  cpu time    1.5648: real time    1.5843
  RMM-DIIS:  cpu time    5.8141: real time    5.8862
    ORTHCH:  cpu time    0.2400: real time    0.2402
       DOS:  cpu time    0.0030: real time    0.0027
    CHARGE:  cpu time    0.3100: real time    0.3191
    MIXING:  cpu time    0.0010: real time    0.0012
    --------------------------------------------
      LOOP:  cpu time    7.9638: real time    8.0652

 eigenvalue-minimisations  :  8400
 total energy-change (2. order) : 0.1835511E-02  (-0.7913005E-03)
 number of electron      91.9999963 magnetization 
 augmentation part       31.1142005 magnetization 

 Broyden mixing:
  rms(total) = 0.51614E-01    rms(broyden)= 0.51614E-01
  rms(prec ) = 0.57448E-01
  weight for this iteration     100.00

 eigenvalues of (default mixing * dielectric matrix)
  average eigenvalue GAMMA=   3.9949
  9.6607  6.2937  3.3232  2.7959  1.0181  0.8775

 Free energy of the ion-electron system (eV)
  ---------------------------------------------------
  alpha Z        PSCENC =       244.15143891
  Ewald energy   TEWEN  =     -6351.20328207
  -Hartree energ DENC   =     -1455.83767506
  -exchange      EXHF   =         0.00000000
  -V(xc)+E(xc)   XCENC  =      -454.93003212
  PAW double counting   =      9126.26856970    -8409.11650084
  entropy T*S    EENTRO =        -0.00259327
  eigenvalues    EBANDS =       549.42987743
  atomic energy  EATOM  =      6693.14607468
  Solvation  Ediel_sol  =         0.00000000
  ---------------------------------------------------
  free energy    TOTEN  =       -58.09412264 eV

  energy without entropy =      -58.09152937  energy(sigma->0) =      -58.09282601


--------------------------------------------------------------------------------------------------------




--------------------------------------- Iteration      1(  14)  ---------------------------------------


    POTLOK:  cpu time    0.0230: real time    0.0228
    SETDIJ:  cpu time    0.0080: real time    0.0077
    EDDIAG:  cpu time    1.5638: real time    1.5841
  RMM-DIIS:  cpu time    5.8231: real time    5.8906
    ORTHCH:  cpu time    0.2370: real time    0.2380
       DOS:  cpu time    0.0030: real time    0.0026
    CHARGE:  cpu time    0.3070: real time    0.3159
    MIXING:  cpu time    0.0010: real time    0.0012
    --------------------------------------------
      LOOP:  cpu time    7.9658: real time    8.0630

 eigenvalue-minimisations  :  8400
 total energy-change (2. order) : 0.1685691E-02  (-0.3854829E-03)
 number of electron      91.9999963 magnetization 
 augmentation part       31.1565307 magnetization 

 Broyden mixing:
  rms(total) = 0.20216E-01    rms(broyden)= 0.20216E-01
  rms(prec ) = 0.20808E-01
  weight for this iteration     100.00

 eigenvalues of (default mixing * dielectric matrix)
  average eigenvalue GAMMA=   4.0233
 10.6504  7.0056  3.3465  3.3465  1.0093  1.2193  1.5856

 Free energy of the ion-electron system (eV)
  ---------------------------------------------------
  alpha Z        PSCENC =       244.15143891
  Ewald energy   TEWEN  =     -6351.20328207
  -Hartree energ DENC   =     -1454.55234542
  -exchange      EXHF   =         0.00000000
  -V(xc)+E(xc)   XCENC  =      -454.99037837
  PAW double counting   =      9113.60630438    -8396.46670736
  entropy T*S    EENTRO =        -0.00258384
  eigenvalues    EBANDS =       548.21904214
  atomic energy  EATOM  =      6693.14607468
  Solvation  Ediel_sol  =         0.00000000
  ---------------------------------------------------
  free energy    TOTEN  =       -58.09243695 eV

  energy without entropy =      -58.08985311  energy(sigma->0) =      -58.09114503


--------------------------------------------------------------------------------------------------------




--------------------------------------- Iteration      1(  15)  ---------------------------------------


    POTLOK:  cpu time    0.0230: real time    0.0227
    SETDIJ:  cpu time    0.0070: real time    0.0078
    EDDIAG:  cpu time    1.5678: real time    1.5886
  RMM-DIIS:  cpu time    5.8481: real time    5.9166
    ORTHCH:  cpu time    0.2380: real time    0.2383
       DOS:  cpu time    0.0020: real time    0.0027
    CHARGE:  cpu time    0.3070: real time    0.3152
    MIXING:  cpu time    0.0010: real time    0.0013
    --------------------------------------------
      LOOP:  cpu time    7.9938: real time    8.0931

 eigenvalue-minimisations  :  8400
 total energy-change (2. order) :-0.1134987E-03  (-0.5704832E-04)
 number of electron      91.9999963 magnetization 
 augmentation part       31.1493325 magnetization 

 Broyden mixing:
  rms(total) = 0.83618E-02    rms(broyden)= 0.83618E-02
  rms(prec ) = 0.10184E-01
  weight for this iteration     100.00

 eigenvalues of (default mixing * dielectric matrix)
  average eigenvalue GAMMA=   3.7445
 10.1608  5.6131  5.6131  2.9867  2.1927  1.0088  0.9435  1.4373

 Free energy of the ion-electron system (eV)
  ---------------------------------------------------
  alpha Z        PSCENC =       244.15143891
  Ewald energy   TEWEN  =     -6351.20328207
  -Hartree energ DENC   =     -1454.74101784
  -exchange      EXHF   =         0.00000000
  -V(xc)+E(xc)   XCENC  =      -454.98255749
  PAW double counting   =      9133.78030999    -8416.76960953
  entropy T*S    EENTRO =        -0.00257830
  eigenvalues    EBANDS =       548.52867121
  atomic energy  EATOM  =      6693.14607468
  Solvation  Ediel_sol  =         0.00000000
  ---------------------------------------------------
  free energy    TOTEN  =       -58.09255045 eV

  energy without entropy =      -58.08997215  energy(sigma->0) =      -58.09126130


--------------------------------------------------------------------------------------------------------




--------------------------------------- Iteration      1(  16)  ---------------------------------------


    POTLOK:  cpu time    0.0230: real time    0.0228
    SETDIJ:  cpu time    0.0070: real time    0.0077
    EDDIAG:  cpu time    1.5638: real time    1.5835
  RMM-DIIS:  cpu time    5.8161: real time    5.8826
    ORTHCH:  cpu time    0.2370: real time    0.2382
       DOS:  cpu time    0.0030: real time    0.0027
    CHARGE:  cpu time    0.3060: real time    0.3150
    MIXING:  cpu time    0.0020: real time    0.0013
    --------------------------------------------
      LOOP:  cpu time    7.9578: real time    8.0539

 eigenvalue-minimisations  :  8400
 total energy-change (2. order) : 0.8240662E-04  (-0.3834266E-04)
 number of electron      91.9999963 magnetization 
 augmentation part       31.1518142 magnetization 

 Broyden mixing:
  rms(total) = 0.12410E-01    rms(broyden)= 0.12410E-01
  rms(prec ) = 0.13024E-01
  weight for this iteration     100.00

 eigenvalues of (default mixing * dielectric matrix)
  average eigenvalue GAMMA=   4.1478
 10.4200  8.7060  7.0774  3.7899  2.7341  1.5874  1.0010  1.0010  1.0130

 Free energy of the ion-electron system (eV)
  ---------------------------------------------------
  alpha Z        PSCENC =       244.15143891
  Ewald energy   TEWEN  =     -6351.20328207
  -Hartree energ DENC   =     -1454.63536310
  -exchange      EXHF   =         0.00000000
  -V(xc)+E(xc)   XCENC  =      -454.97797214
  PAW double counting   =      9136.90223601    -8419.90125520
  entropy T*S    EENTRO =        -0.00256338
  eigenvalues    EBANDS =       548.42821825
  atomic energy  EATOM  =      6693.14607468
  Solvation  Ediel_sol  =         0.00000000
  ---------------------------------------------------
  free energy    TOTEN  =       -58.09246804 eV

  energy without entropy =      -58.08990466  energy(sigma->0) =      -58.09118635


--------------------------------------------------------------------------------------------------------




--------------------------------------- Iteration      1(  17)  ---------------------------------------


    POTLOK:  cpu time    0.0220: real time    0.0241
    SETDIJ:  cpu time    0.0080: real time    0.0078
    EDDIAG:  cpu time    1.5618: real time    1.5817
  RMM-DIIS:  cpu time    5.8031: real time    5.8739
    ORTHCH:  cpu time    0.2390: real time    0.2393
       DOS:  cpu time    0.0020: real time    0.0027
    CHARGE:  cpu time    0.3100: real time    0.3182
    MIXING:  cpu time    0.0010: real time    0.0014
    --------------------------------------------
      LOOP:  cpu time    7.9468: real time    8.0490

 eigenvalue-minimisations  :  8400
 total energy-change (2. order) : 0.4591252E-04  (-0.1218765E-04)
 number of electron      91.9999963 magnetization 
 augmentation part       31.1580475 magnetization 

 Broyden mixing:
  rms(total) = 0.13096E-02    rms(broyden)= 0.13096E-02
  rms(prec ) = 0.18483E-02
  weight for this iteration     100.00

 eigenvalues of (default mixing * dielectric matrix)
  average eigenvalue GAMMA=   3.7035
 10.2966  7.1112  7.1112  3.8967  2.6774  1.5353  1.0027  0.9648  1.2196  1.2196

 Free energy of the ion-electron system (eV)
  ---------------------------------------------------
  alpha Z        PSCENC =       244.15143891
  Ewald energy   TEWEN  =     -6351.20328207
  -Hartree energ DENC   =     -1454.47371969
  -exchange      EXHF   =         0.00000000
  -V(xc)+E(xc)   XCENC  =      -454.98861493
  PAW double counting   =      9129.45640086    -8412.42333700
  entropy T*S    EENTRO =        -0.00256446
  eigenvalues    EBANDS =       548.24518157
  atomic energy  EATOM  =      6693.14607468
  Solvation  Ediel_sol  =         0.00000000
  ---------------------------------------------------
  free energy    TOTEN  =       -58.09242213 eV

  energy without entropy =      -58.08985767  energy(sigma->0) =      -58.09113990


--------------------------------------------------------------------------------------------------------




--------------------------------------- Iteration      1(  18)  ---------------------------------------


    POTLOK:  cpu time    0.0230: real time    0.0228
    SETDIJ:  cpu time    0.0070: real time    0.0078
    EDDIAG:  cpu time    1.5658: real time    1.5851
  RMM-DIIS:  cpu time    5.8181: real time    5.8854
    ORTHCH:  cpu time    0.2360: real time    0.2370
       DOS:  cpu time    0.0030: real time    0.0027
    CHARGE:  cpu time    0.3110: real time    0.3192
    MIXING:  cpu time    0.0010: real time    0.0016
    --------------------------------------------
      LOOP:  cpu time    7.9648: real time    8.0617

 eigenvalue-minimisations  :  8400
 total energy-change (2. order) : 0.4512594E-06  (-0.1629694E-05)
 number of electron      91.9999963 magnetization 
 augmentation part       31.1553610 magnetization 

 Broyden mixing:
  rms(total) = 0.20802E-02    rms(broyden)= 0.20802E-02
  rms(prec ) = 0.21916E-02
  weight for this iteration     100.00

 eigenvalues of (default mixing * dielectric matrix)
  average eigenvalue GAMMA=   3.8548
 10.3940  7.4926  7.4926  4.3226  4.3226  2.7425  1.5390  1.1251  0.9835  0.9835
  1.0048

 Free energy of the ion-electron system (eV)
  ---------------------------------------------------
  alpha Z        PSCENC =       244.15143891
  Ewald energy   TEWEN  =     -6351.20328207
  -Hartree energ DENC   =     -1454.55863797
  -exchange      EXHF   =         0.00000000
  -V(xc)+E(xc)   XCENC  =      -454.98542410
  PAW double counting   =      9130.64380690    -8413.61364153
  entropy T*S    EENTRO =        -0.00256643
  eigenvalues    EBANDS =       548.32980993
  atomic energy  EATOM  =      6693.14607468
  Solvation  Ediel_sol  =         0.00000000
  ---------------------------------------------------
  free energy    TOTEN  =       -58.09242168 eV

  energy without entropy =      -58.08985525  energy(sigma->0) =      -58.09113847


--------------------------------------------------------------------------------------------------------




--------------------------------------- Iteration      1(  19)  ---------------------------------------


    POTLOK:  cpu time    0.0230: real time    0.0228
    SETDIJ:  cpu time    0.0080: real time    0.0078
    EDDIAG:  cpu time    1.5638: real time    1.5846
  RMM-DIIS:  cpu time    3.6055: real time    3.6494
    ORTHCH:  cpu time    0.2370: real time    0.2378
       DOS:  cpu time    0.0030: real time    0.0027
    CHARGE:  cpu time    0.3160: real time    0.3170
    MIXING:  cpu time    0.0020: real time    0.0016
    --------------------------------------------
      LOOP:  cpu time    5.7581: real time    5.8237

 eigenvalue-minimisations  :  4678
 total energy-change (2. order) : 0.2736547E-05  (-0.1604344E-06)
 number of electron      91.9999963 magnetization 
 augmentation part       31.1556177 magnetization 

 Broyden mixing:
  rms(total) = 0.12905E-02    rms(broyden)= 0.12905E-02
  rms(prec ) = 0.13847E-02
  weight for this iteration     100.00

 eigenvalues of (default mixing * dielectric matrix)
  average eigenvalue GAMMA=   3.7025
 10.2713  8.5596  6.7944  5.2632  3.8856  2.7308  1.5649  0.9885  0.9972  1.0682
  1.0682  1.2379

 Free energy of the ion-electron system (eV)
  ---------------------------------------------------
  alpha Z        PSCENC =       244.15143891
  Ewald energy   TEWEN  =     -6351.20328207
  -Hartree energ DENC   =     -1454.55251509
  -exchange      EXHF   =         0.00000000
  -V(xc)+E(xc)   XCENC  =      -454.98573466
  PAW double counting   =      9129.99127358    -8412.95608201
  entropy T*S    EENTRO =        -0.00256699
  eigenvalues    EBANDS =       548.31897472
  atomic energy  EATOM  =      6693.14607468
  Solvation  Ediel_sol  =         0.00000000
  ---------------------------------------------------
  free energy    TOTEN  =       -58.09241894 eV

  energy without entropy =      -58.08985195  energy(sigma->0) =      -58.09113545


--------------------------------------------------------------------------------------------------------




--------------------------------------- Iteration      1(  20)  ---------------------------------------


    POTLOK:  cpu time    0.0220: real time    0.0227
    SETDIJ:  cpu time    0.0080: real time    0.0078
    EDDIAG:  cpu time    1.5638: real time    1.5920
  RMM-DIIS:  cpu time    3.8024: real time    3.8462
    ORTHCH:  cpu time    0.2370: real time    0.2379
       DOS:  cpu time    0.0030: real time    0.0027
    CHARGE:  cpu time    0.3130: real time    0.3137
    MIXING:  cpu time    0.0010: real time    0.0016
    --------------------------------------------
      LOOP:  cpu time    5.9501: real time    6.0245

 eigenvalue-minimisations  :  4996
 total energy-change (2. order) : 0.2841302E-05  (-0.1731744E-06)
 number of electron      91.9999963 magnetization 
 augmentation part       31.1563822 magnetization 

 Broyden mixing:
  rms(total) = 0.23278E-03    rms(broyden)= 0.23278E-03
  rms(prec ) = 0.24717E-03
  weight for this iteration     100.00

 eigenvalues of (default mixing * dielectric matrix)
  average eigenvalue GAMMA=   3.5893
 10.3048  8.5319  6.8108  5.7375  3.9110  2.7450  2.0166  1.5448  1.0987  1.0987
  0.9880  0.9880  0.8853

 Free energy of the ion-electron system (eV)
  ---------------------------------------------------
  alpha Z        PSCENC =       244.15143891
  Ewald energy   TEWEN  =     -6351.20328207
  -Hartree energ DENC   =     -1454.53324794
  -exchange      EXHF   =         0.00000000
  -V(xc)+E(xc)   XCENC  =      -454.98696784
  PAW double counting   =      9128.86408524    -8411.82304490
  entropy T*S    EENTRO =        -0.00256705
  eigenvalues    EBANDS =       548.29509486
  atomic energy  EATOM  =      6693.14607468
  Solvation  Ediel_sol  =         0.00000000
  ---------------------------------------------------
  free energy    TOTEN  =       -58.09241610 eV

  energy without entropy =      -58.08984905  energy(sigma->0) =      -58.09113258


--------------------------------------------------------------------------------------------------------




--------------------------------------- Iteration      1(  21)  ---------------------------------------


    POTLOK:  cpu time    0.0230: real time    0.0238
    SETDIJ:  cpu time    0.0080: real time    0.0078
    EDDIAG:  cpu time    1.5628: real time    1.5909
  RMM-DIIS:  cpu time    3.5135: real time    3.5567
    ORTHCH:  cpu time    0.2380: real time    0.2383
       DOS:  cpu time    0.0030: real time    0.0027
    --------------------------------------------
      LOOP:  cpu time    5.3482: real time    5.4201

 eigenvalue-minimisations  :  4488
 total energy-change (2. order) : 0.2807010E-06  (-0.2458401E-07)
 number of electron      91.9999963 magnetization 
 augmentation part       31.1563822 magnetization 

 Free energy of the ion-electron system (eV)
  ---------------------------------------------------
  alpha Z        PSCENC =       244.15143891
  Ewald energy   TEWEN  =     -6351.20328207
  -Hartree energ DENC   =     -1454.53796436
  -exchange      EXHF   =         0.00000000
  -V(xc)+E(xc)   XCENC  =      -454.98681335
  PAW double counting   =      9128.80320717    -8411.76128261
  entropy T*S    EENTRO =        -0.00256709
  eigenvalues    EBANDS =       548.29877290
  atomic energy  EATOM  =      6693.14607468
  Solvation  Ediel_sol  =         0.00000000
  ---------------------------------------------------
  free energy    TOTEN  =       -58.09241582 eV

  energy without entropy =      -58.08984873  energy(sigma->0) =      -58.09113228


--------------------------------------------------------------------------------------------------------




 average (electrostatic) potential at core
  the test charge radii are     1.4837  1.1199
  (the norm of the test charge is              1.0000)
       1 -33.0927       2 -33.0927       3 -33.0927       4 -33.0927       5 -71.4019
       6 -71.4019       7 -71.4019       8 -71.4019       9 -71.3038      10 -71.3038
      11 -71.3038      12 -71.3038
 
 
 
 E-fermi :   9.0801     XC(G=0): -12.3580     alpha+bet :-15.6939


 k-point     1 :       0.0000    0.0000    0.0000
  band No.  band energies     occupation 
      1      -0.2638      2.00000
      2       1.6728      2.00000
      3       1.9310      2.00000
      4       3.2475      2.00000
      5       3.9394      2.00000
      6       4.4684      2.00000
      7       4.5081      2.00000
      8       4.5162      2.00000
      9       4.7856      2.00000
     10       4.9395      2.00000
     11       5.0152      2.00000
     12       5.0319      2.00000
     13       5.0793      2.00000
     14       5.1968      2.00000
     15       5.2119      2.00000
     16       5.3403      2.00000
     17       5.3763      2.00000
     18       5.4077      2.00000
     19       5.4424      2.00000
     20       5.6501      2.00000
     21       5.9703      2.00000
     22       6.3781      2.00000
     23       6.4300      2.00000
     24       6.4870      2.00000
     25       6.5536      2.00000
     26       6.6367      2.00000
     27       6.7630      2.00000
     28       6.7811      2.00000
     29       6.8359      2.00000
     30       6.8983      2.00000
     31       6.9851      2.00000
     32       7.1436      2.00000
     33       7.1991      2.00000
     34       7.2737      2.00000
     35       7.3501      2.00000
     36       7.4124      2.00000
     37       7.5836      2.00000
     38       7.5931      2.00000
     39       7.6418      2.00000
     40       7.8410      2.00000
     41       7.9795      2.00000
     42       8.2186      2.00000
     43       8.2552      2.00000
     44       8.6476      2.00000
     45       8.7445      2.00000
     46       8.8678      2.00000
     47       8.9867      1.99999
     48       9.8681      0.00000
     49      10.1695      0.00000
     50      10.9444      0.00000
     51      12.0967      0.00000
     52      12.9421      0.00000
     53      13.6147      0.00000
     54      13.9036      0.00000
     55      13.9325      0.00000
     56      14.0793      0.00000
     57      15.3597      0.00000
     58      15.5989      0.00000
     59      16.2977      0.00000
     60      16.3620      0.00000

 k-point     2 :       0.1667    0.0000    0.0000
  band No.  band energies     occupation 
      1      -0.1159      2.00000
      2       1.7328      2.00000
      3       2.0436      2.00000
[...]
    ORTHCH:  cpu time    0.2400: real time    0.2403
       DOS:  cpu time    0.0020: real time    0.0027
    CHARGE:  cpu time    0.3210: real time    0.3218
    MIXING:  cpu time    0.0010: real time    0.0008
    --------------------------------------------
      LOOP:  cpu time    7.8828: real time    7.9103

 eigenvalue-minimisations  :  8400
 total energy-change (2. order) :-0.3479567E-04  (-0.4035268E-04)
 number of electron      91.9999859 magnetization 
 augmentation part       31.2199905 magnetization 

 eigenvalues of (default mixing * dielectric matrix)
  average eigenvalue GAMMA=   1.3006
  1.3006

  free energy =  -0.582755948123E+02  energy without entropy=  -0.582733068261E+02


--------------------------------------------------------------------------------------------------------




--------------------------------------- Iteration     15(   3)  ---------------------------------------


    POTLOK:  cpu time    0.0230: real time    0.0229
    SETDIJ:  cpu time    0.0080: real time    0.0075
    EDDIAG:  cpu time    1.5678: real time    1.5797
  RMM-DIIS:  cpu time    5.6891: real time    5.7026
    ORTHCH:  cpu time    0.2400: real time    0.2399
       DOS:  cpu time    0.0020: real time    0.0026
    CHARGE:  cpu time    0.3160: real time    0.3169
    MIXING:  cpu time    0.0010: real time    0.0009
    --------------------------------------------
      LOOP:  cpu time    7.8468: real time    7.8730

 eigenvalue-minimisations  :  8421
 total energy-change (2. order) : 0.1597544E-05  (-0.2208359E-05)
 number of electron      91.9999859 magnetization 
 augmentation part       31.2207973 magnetization 

 eigenvalues of (default mixing * dielectric matrix)
  average eigenvalue GAMMA=   2.5836
  1.3160  3.8512

  free energy =  -0.582755932147E+02  energy without entropy=  -0.582733050809E+02


--------------------------------------------------------------------------------------------------------




--------------------------------------- Iteration     15(   4)  ---------------------------------------


    POTLOK:  cpu time    0.0230: real time    0.0229
    SETDIJ:  cpu time    0.0080: real time    0.0075
    EDDIAG:  cpu time    1.5718: real time    1.5840
  RMM-DIIS:  cpu time    5.5832: real time    5.5953
    ORTHCH:  cpu time    0.2380: real time    0.2390
       DOS:  cpu time    0.0030: real time    0.0027
    CHARGE:  cpu time    0.3180: real time    0.3186
    MIXING:  cpu time    0.0010: real time    0.0010
    --------------------------------------------
      LOOP:  cpu time    7.7458: real time    7.7709

 eigenvalue-minimisations  :  7994
 total energy-change (2. order) : 0.5006808E-05  (-0.6153579E-06)
 number of electron      91.9999859 magnetization 
 augmentation part       31.2220895 magnetization 

 eigenvalues of (default mixing * dielectric matrix)
  average eigenvalue GAMMA=   2.8551
  5.5796  1.1311  1.8547

  free energy =  -0.582755882079E+02  energy without entropy=  -0.582732997484E+02


--------------------------------------------------------------------------------------------------------




--------------------------------------- Iteration     15(   5)  ---------------------------------------


    POTLOK:  cpu time    0.0230: real time    0.0234
    SETDIJ:  cpu time    0.0070: real time    0.0075
    EDDIAG:  cpu time    1.5698: real time    1.5815
  RMM-DIIS:  cpu time    3.4205: real time    3.4277
    ORTHCH:  cpu time    0.2380: real time    0.2389
       DOS:  cpu time    0.0030: real time    0.0027
    CHARGE:  cpu time    0.3180: real time    0.3190
    MIXING:  cpu time    0.0010: real time    0.0010
    --------------------------------------------
      LOOP:  cpu time    5.5802: real time    5.6016

 eigenvalue-minimisations  :  4500
 total energy-change (2. order) : 0.1057252E-05  (-0.1374429E-06)
 number of electron      91.9999859 magnetization 
 augmentation part       31.2220476 magnetization 

 eigenvalues of (default mixing * dielectric matrix)
  average eigenvalue GAMMA=   3.1042
  7.4123  2.8006  0.9744  1.2296

  free energy =  -0.582755871507E+02  energy without entropy=  -0.582732984658E+02


--------------------------------------------------------------------------------------------------------




--------------------------------------- Iteration     15(   6)  ---------------------------------------


    POTLOK:  cpu time    0.0230: real time    0.0229
    SETDIJ:  cpu time    0.0080: real time    0.0075
    EDDIAG:  cpu time    1.5648: real time    1.5766
  RMM-DIIS:  cpu time    3.3225: real time    3.3303
    ORTHCH:  cpu time    0.2390: real time    0.2388
       DOS:  cpu time    0.0020: real time    0.0027
    --------------------------------------------
      LOOP:  cpu time    5.1592: real time    5.1788

 eigenvalue-minimisations  :  4404
 total energy-change (2. order) :-0.6871778E-07  (-0.1067167E-06)
 number of electron      91.9999859 magnetization 
 augmentation part       31.2220476 magnetization 

  free energy =  -0.582755872194E+02  energy without entropy=  -0.582732984163E+02


--------------------------------------------------------------------------------------------------------




------------------------ aborting loop because EDIFF is reached ----------------------------------------


    CHARGE:  cpu time    0.3170: real time    0.3175
    FORLOC:  cpu time    0.0030: real time    0.0029
    FORNL :  cpu time    2.5756: real time    2.5815
    STRESS:  cpu time    7.8498: real time    7.8668
    FORCOR:  cpu time    0.0240: real time    0.0244
    FORHAR:  cpu time    0.0140: real time    0.0146
    MIXING:  cpu time    0.0010: real time    0.0010
    OFIELD:  cpu time    0.0000: real time    0.0000

  FORCE on cell =-STRESS in cart. coord.  units (eV):
  Direction    XX          YY          ZZ          XY          YZ          ZX
  --------------------------------------------------------------------------------------
  Alpha Z   233.56565   233.56565   233.56565
  Ewald   -2085.86336 -2051.10042 -2121.00540    -0.00000    -0.00000     0.08924
  Hartree   507.22472   519.69482   467.96923    -0.00000    -0.00000     0.10075
  E(xc)    -473.70614  -474.54243  -474.70463    -0.00000    -0.00000    -0.00050
  Local      14.00407   -28.85491    87.20336    -0.00000    -0.00000    -0.20192
  n-local    71.92517    76.80699    77.23238    -0.82978     0.09716     0.00692
  augment   567.72726   565.02311   566.57647     0.00000     0.00000     0.00147
  Kinetic  1165.17183  1159.43614  1163.16985    -0.26504     0.54585     0.00380
  Fock        0.00000     0.00000     0.00000     0.00000     0.00000     0.00000
  -------------------------------------------------------------------------------------
  Total       0.04919     0.02894     0.00690     0.00000     0.00000    -0.00024
  in kB       0.38687     0.22762     0.05425     0.00000     0.00000    -0.00187
  external pressure =        0.22 kB  Pullay stress =        0.00 kB



--------------------------------------------------------------------------------------------------------



  FREE ENERGIE OF THE ION-ELECTRON SYSTEM (eV)
  ---------------------------------------------------
  free  energy   TOTEN  =       -58.27558722 eV

  energy  without entropy=      -58.27329842  energy(sigma->0) =      -58.27444282
 
 d Force = 0.1227933E-03[ 0.113E-03, 0.133E-03]  d Energy = 0.1193616E-03 0.343E-05
 d Force =-0.1146680E+00[-0.115E+00,-0.114E+00]  d Ewald  = 0.3410711E-02-0.118E+00


--------------------------------------------------------------------------------------------------------


    POTLOK:  cpu time    0.0300: real time    0.0301


--------------------------------------------------------------------------------------------------------


 Conjugate gradient step on ions:
 trial-energy change:   -0.000119  1 .order   -0.000126   -0.000137   -0.000115
  (g-gl).g = 0.497E-04      g.g   = 0.547E-04  gl.gl    = 0.283E-03
 g(Force)  = 0.472E-04   g(Stress)= 0.745E-05 ortho     = 0.770E-05
 gamma     =   0.17540
 trial     =   2.44785
 opt step  =   9.79141  (harmonic =  14.80515) maximal distance =0.00514936
 next E    =   -58.275883   (d E  =  -0.00041)


--------------------------------------------------------------------------------------------------------


    WAVPRE:  cpu time    0.0090: real time    0.0103
    FEWALD:  cpu time    0.0000: real time    0.0003
    GENKIN:  cpu time    0.0560: real time    0.0558
    ORTHCH:  cpu time    1.1048: real time    1.1068
     LOOP+:  cpu time   58.4711: real time   58.6576


--------------------------------------- Iteration     16(   1)  ---------------------------------------


    POTLOK:  cpu time    0.0250: real time    0.0257
    SETDIJ:  cpu time    0.0070: real time    0.0076
     EDDAV:  cpu time   11.8712: real time   11.9048
       DOS:  cpu time    0.0030: real time    0.0027
    CHARGE:  cpu time    0.3170: real time    0.3177
    MIXING:  cpu time    0.0000: real time    0.0008
    --------------------------------------------
      LOOP:  cpu time   12.2231: real time   12.2593

 eigenvalue-minimisations  :  8400
 total energy-change (2. order) : 0.3179561E-04  (-0.3149720E-01)
 number of electron      91.9999860 magnetization 
 augmentation part       31.2136465 magnetization 

  free energy =  -0.582755553551E+02  energy without entropy=  -0.582732439818E+02


--------------------------------------------------------------------------------------------------------




--------------------------------------- Iteration     16(   2)  ---------------------------------------


    POTLOK:  cpu time    0.0230: real time    0.0229
    SETDIJ:  cpu time    0.0080: real time    0.0076
    EDDIAG:  cpu time    1.5638: real time    1.5761
  RMM-DIIS:  cpu time    5.6901: real time    5.7027
    ORTHCH:  cpu time    0.2390: real time    0.2392
       DOS:  cpu time    0.0030: real time    0.0027
    CHARGE:  cpu time    0.3190: real time    0.3195
    MIXING:  cpu time    0.0010: real time    0.0009
    --------------------------------------------
      LOOP:  cpu time    7.8468: real time    7.8716

 eigenvalue-minimisations  :  8400
 total energy-change (2. order) :-0.3131673E-03  (-0.3630119E-03)
 number of electron      91.9999860 magnetization 
 augmentation part       31.2159910 magnetization 

 eigenvalues of (default mixing * dielectric matrix)
  average eigenvalue GAMMA=   1.3147
  1.3147

  free energy =  -0.582758685223E+02  energy without entropy=  -0.582735571022E+02


--------------------------------------------------------------------------------------------------------




--------------------------------------- Iteration     16(   3)  ---------------------------------------


    POTLOK:  cpu time    0.0230: real time    0.0240
    SETDIJ:  cpu time    0.0070: real time    0.0075
    EDDIAG:  cpu time    1.5638: real time    1.5751
  RMM-DIIS:  cpu time    5.9111: real time    5.9247
    ORTHCH:  cpu time    0.2390: real time    0.2391
       DOS:  cpu time    0.0020: real time    0.0027
    CHARGE:  cpu time    0.3140: real time    0.3147
    MIXING:  cpu time    0.0010: real time    0.0010
    --------------------------------------------
      LOOP:  cpu time    8.0608: real time    8.0888

 eigenvalue-minimisations  :  8623
 total energy-change (2. order) : 0.1399072E-04  (-0.2001098E-04)
 number of electron      91.9999860 magnetization 
 augmentation part       31.2184379 magnetization 

 eigenvalues of (default mixing * dielectric matrix)
  average eigenvalue GAMMA=   2.5812
  1.3094  3.8531

  free energy =  -0.582758545316E+02  energy without entropy=  -0.582735427611E+02


--------------------------------------------------------------------------------------------------------




--------------------------------------- Iteration     16(   4)  ---------------------------------------


    POTLOK:  cpu time    0.0230: real time    0.0229
    SETDIJ:  cpu time    0.0080: real time    0.0075
    EDDIAG:  cpu time    1.5618: real time    1.5741
  RMM-DIIS:  cpu time    5.7351: real time    5.7526
    ORTHCH:  cpu time    0.2390: real time    0.2389
       DOS:  cpu time    0.0020: real time    0.0026
    CHARGE:  cpu time    0.3230: real time    0.3230
    MIXING:  cpu time    0.0010: real time    0.0011
    --------------------------------------------
      LOOP:  cpu time    7.8928: real time    7.9227

 eigenvalue-minimisations  :  8400
 total energy-change (2. order) : 0.4475645E-04  (-0.5470401E-05)
 number of electron      91.9999860 magnetization 
 augmentation part       31.2222912 magnetization 

 eigenvalues of (default mixing * dielectric matrix)
  average eigenvalue GAMMA=   2.8617
  5.5942  1.1317  1.8592

  free energy =  -0.582758097752E+02  energy without entropy=  -0.582734972117E+02


--------------------------------------------------------------------------------------------------------




--------------------------------------- Iteration     16(   5)  ---------------------------------------


    POTLOK:  cpu time    0.0220: real time    0.0229
    SETDIJ:  cpu time    0.0080: real time    0.0074
    EDDIAG:  cpu time    1.5608: real time    1.5734
  RMM-DIIS:  cpu time    5.6901: real time    5.7026
    ORTHCH:  cpu time    0.2400: real time    0.2397
       DOS:  cpu time    0.0020: real time    0.0024
    CHARGE:  cpu time    0.3150: real time    0.3155
    MIXING:  cpu time    0.0010: real time    0.0011
    --------------------------------------------
      LOOP:  cpu time    7.8388: real time    7.8650

 eigenvalue-minimisations  :  8399
 total energy-change (2. order) : 0.1111028E-04  (-0.1366890E-05)
 number of electron      91.9999860 magnetization 
 augmentation part       31.2221550 magnetization 

 eigenvalues of (default mixing * dielectric matrix)
  average eigenvalue GAMMA=   3.0791
  7.3134  2.7901  0.9758  1.2373

  free energy =  -0.582757986649E+02  energy without entropy=  -0.582734856020E+02


--------------------------------------------------------------------------------------------------------




--------------------------------------- Iteration     16(   6)  ---------------------------------------


    POTLOK:  cpu time    0.0230: real time    0.0233
    SETDIJ:  cpu time    0.0070: real time    0.0075
    EDDIAG:  cpu time    1.5768: real time    1.5897
  RMM-DIIS:  cpu time    5.6641: real time    5.6770
    ORTHCH:  cpu time    0.2400: real time    0.2404
       DOS:  cpu time    0.0030: real time    0.0027
    CHARGE:  cpu time    0.3170: real time    0.3176
    MIXING:  cpu time    0.0010: real time    0.0011
    --------------------------------------------
      LOOP:  cpu time    7.8318: real time    7.8594

 eigenvalue-minimisations  :  8377
 total energy-change (2. order) : 0.1325183E-05  (-0.8547983E-06)
 number of electron      91.9999860 magnetization 
 augmentation part       31.2211647 magnetization 

 eigenvalues of (default mixing * dielectric matrix)
  average eigenvalue GAMMA=   3.4032
  7.8205  4.3031  2.7132  1.0022  1.1769

  free energy =  -0.582757973397E+02  energy without entropy=  -0.582734840293E+02


--------------------------------------------------------------------------------------------------------




--------------------------------------- Iteration     16(   7)  ---------------------------------------


    POTLOK:  cpu time    0.0230: real time    0.0230
    SETDIJ:  cpu time    0.0080: real time    0.0076
    EDDIAG:  cpu time    1.5748: real time    1.5873
  RMM-DIIS:  cpu time    3.4225: real time    3.4291
    ORTHCH:  cpu time    0.2370: real time    0.2374
       DOS:  cpu time    0.0030: real time    0.0026
    --------------------------------------------
      LOOP:  cpu time    5.2682: real time    5.2871

 eigenvalue-minimisations  :  4509
 total energy-change (2. order) :-0.2037395E-06  (-0.5625272E-07)
 number of electron      91.9999860 magnetization 
 augmentation part       31.2211647 magnetization 

  free energy =  -0.582757975434E+02  energy without entropy=  -0.582734844200E+02


--------------------------------------------------------------------------------------------------------




------------------------ aborting loop because EDIFF is reached ----------------------------------------


    CHARGE:  cpu time    0.3170: real time    0.3184
    FORLOC:  cpu time    0.0020: real time    0.0029
    FORNL :  cpu time    2.5646: real time    2.5699
    STRESS:  cpu time    7.8538: real time    7.8712
    FORCOR:  cpu time    0.0250: real time    0.0245
    FORHAR:  cpu time    0.0070: real time    0.0071
    MIXING:  cpu time    0.0010: real time    0.0010
    OFIELD:  cpu time    0.0000: real time    0.0000

  FORCE on cell =-STRESS in cart. coord.  units (eV):
  Direction    XX          YY          ZZ          XY          YZ          ZX
  --------------------------------------------------------------------------------------
  Alpha Z   233.60554   233.60554   233.60554
  Ewald   -2087.04205 -2049.69950 -2121.23418     0.00000     0.00000    -0.12795
  Hartree   506.55433   521.00330   467.53592    -0.00000    -0.00000    -0.09452
  E(xc)    -473.71834  -474.53856  -474.72366    -0.00000     0.00000    -0.00027
  Local      15.73889   -31.66657    87.88803    -0.00000    -0.00000     0.21675
  n-local    71.92518    76.78841    77.34730    -0.83155     0.09865     0.00292
  augment   567.74608   565.04546   566.52799     0.00000     0.00000    -0.00093
  Kinetic  1165.21531  1159.49660  1163.10764    -0.26293     0.55025    -0.00308
  Fock        0.00000     0.00000     0.00000     0.00000     0.00000     0.00000
  -------------------------------------------------------------------------------------
  Total       0.02493     0.03468     0.05458     0.00000     0.00000    -0.00709
  in kB       0.19612     0.27279     0.42929     0.00000     0.00000    -0.05574
  external pressure =        0.30 kB  Pullay stress =        0.00 kB



--------------------------------------------------------------------------------------------------------



  FREE ENERGIE OF THE ION-ELECTRON SYSTEM (eV)
  ---------------------------------------------------
  free  energy   TOTEN  =       -58.27579754 eV

  energy  without entropy=      -58.27348442  energy(sigma->0) =      -58.27464098
 
 d Force = 0.2340762E-03[ 0.130E-03, 0.339E-03]  d Energy = 0.2103240E-03 0.238E-04
 d Force =-0.3475399E+00[-0.350E+00,-0.345E+00]  d Ewald  = 0.6550304E-02-0.354E+00


--------------------------------------------------------------------------------------------------------


    POTLOK:  cpu time    0.0300: real time    0.0301


--------------------------------------------------------------------------------------------------------




--------------------------------------------------------------------------------------------------------


  
 reached required accuracy - stopping structural energy minimisation
     LOOP+:  cpu time   67.7857: real time   68.0061
    4ORBIT:  cpu time    0.0000: real time    0.0000

 total amount of memory used by VASP MPI-rank0    63928. kBytes
=======================================================================

   base      :      30000. kBytes
   nonlr-proj:       5038. kBytes
   fftplans  :        936. kBytes
   grid      :       2703. kBytes
   one-center:        186. kBytes
   wavefun   :      25065. kBytes
 
  
  
 General timing and accounting informations for this job:
 ========================================================
  
                  Total CPU time used (sec):     1320.191
                            User time (sec):     1313.732
                          System time (sec):        6.459
                         Elapsed time (sec):     1327.557
  
                   Maximum memory used (kb):      107760.
                   Average memory used (kb):           0.
  
                          Minor page faults:       103515
                          Major page faults:            0
                 Voluntary context switches:        67460
