<?xml version="1.0" encoding="ISO-8859-1"?>
<modeling>
 <generator>
  <i name="program" type="string">vasp </i>
  <i name="version" type="string">5.4.4.18Apr17-6-g9f103f2a35  </i>
  <i name="subversion" type="string">(build May 11 2017 09:47:33) complex            parallel </i>
  <i name="platform" type="string">tekla2IFC </i>
  <i name="date" type="string">2020 05 14 </i>
  <i name="time" type="string">11:33:01 </i>
 </generator>
 <incar>
  <i type="string" name="SYSTEM">   bulk</i>
  <i type="int" name="ISTART">     0</i>
  <i type="string" name="PREC">normal</i>
  <i type="string" name="ALGO">   Fast</i>
  <i type="int" name="ISPIN">     1</i>
  <i name="AMIX">      0.10000000</i>
  <i name="BMIX">      0.01000000</i>
  <i name="AMIN">      0.10000000</i>
  <i type="int" name="ICHARG">     2</i>
  <i type="int" name="NELM">   100</i>
  <i type="int" name="NELMDL">    -7</i>
  <i type="int" name="NELMIN">     5</i>
  <i type="int" name="IBRION">     2</i>
  <i type="int" name="NFREE">     2</i>
  <i name="EDIFF">      0.00000100</i>
  <i name="EDIFFG">     -0.02000000</i>
  <i type="int" name="NSW">   100</i>
  <i type="int" name="ISIF">     3</i>
  <i name="ENCUT">    450.00000000</i>
  <i type="int" name="NBANDS">    60</i>
  <i name="POTIM">      0.15000000</i>
  <i type="string" name="LREAL"> Auto</i>
  <i type="int" name="ISMEAR">     0</i>
  <i name="SIGMA">      0.03000000</i>
  <i type="int" name="NWRITE">     0</i>
  <i type="logical" name="LWAVE"> F  </i>
  <i type="logical" name="LCHARG"> F  </i>
  <i type="logical" name="LAECHG"> F  </i>
  <v type="int" name="KPOINT_BSE">    -1     0     0     0</v>
  <i type="int" name="NELM">   100</i>
  <i type="string" name="GGA">   PE</i>
 </incar>
 <structure name="primitive_cell" >
  <crystal>
   <varray name="basis" >
    <v>       5.61675978       0.00000000       0.00000000 </v>
    <v>       0.00000000       4.21710014       0.00000000 </v>
    <v>       0.00000000       0.00000000       8.22780037 </v>
   </varray>
   <i name="volume">    194.88728712 </i>
   <varray name="rec_basis" >
    <v>       0.17803859       0.00000000       0.00000000 </v>
    <v>       0.00000000       0.23712977       0.00000000 </v>
    <v>       0.00000000       0.00000000       0.12153917 </v>
   </varray>
  </crystal>
  <varray name="positions" >
   <v>      -0.17780000       0.25000000       0.39890000 </v>
   <v>      -0.16000003       0.25000000       0.07230000 </v>
   <v>      -0.33999997      -0.25000000      -0.42769998 </v>
   <v>       0.33999997       0.25000000       0.42769998 </v>
   <v>       0.06709999      -0.25000000       0.26819998 </v>
   <v>      -0.06709999       0.25000000      -0.26819998 </v>
   <v>      -0.43290001      -0.25000000       0.23180002 </v>
   <v>       0.17780000      -0.25000000      -0.39890003 </v>
   <v>       0.32220000       0.25000000       0.10110000 </v>
   <v>       0.43290001       0.25000000      -0.23180002 </v>
   <v>      -0.32220000      -0.25000000      -0.10109997 </v>
   <v>       0.16000003      -0.25000000      -0.07230002 </v>
  </varray>
 </structure>
 <varray name="primitive_index" >
  <v type="int" >        1 </v>
  <v type="int" >        5 </v>
  <v type="int" >        7 </v>
  <v type="int" >        8 </v>
  <v type="int" >       10 </v>
  <v type="int" >        9 </v>
  <v type="int" >       11 </v>
  <v type="int" >        2 </v>
  <v type="int" >        4 </v>
  <v type="int" >       12 </v>
  <v type="int" >        3 </v>
  <v type="int" >        6 </v>
 </varray>
 <kpoints>
  <generation param="Gamma">
   <v type="int" name="divisions">       6        8        4 </v>
   <v name="usershift">      0.00000000       0.00000000       0.00000000 </v>
   <v name="genvec1">      0.16666667       0.00000000       0.00000000 </v>
   <v name="genvec2">      0.00000000       0.12500000       0.00000000 </v>
   <v name="genvec3">      0.00000000       0.00000000       0.25000000 </v>
   <v name="shift">      0.00000000       0.00000000       0.00000000 </v>
  </generation>
  <varray name="kpointlist" >
   <v>       0.00000000       0.00000000       0.00000000 </v>
   <v>       0.16666667       0.00000000       0.00000000 </v>
   <v>       0.33333333       0.00000000       0.00000000 </v>
   <v>       0.50000000       0.00000000       0.00000000 </v>
   <v>       0.00000000       0.12500000       0.00000000 </v>
   <v>       0.16666667       0.12500000       0.00000000 </v>
   <v>       0.33333333       0.12500000       0.00000000 </v>
   <v>       0.50000000       0.12500000       0.00000000 </v>
   <v>       0.00000000       0.25000000       0.00000000 </v>
   <v>       0.16666667       0.25000000       0.00000000 </v>
   <v>       0.33333333       0.25000000       0.00000000 </v>
   <v>       0.50000000       0.25000000       0.00000000 </v>
   <v>       0.00000000       0.37500000       0.00000000 </v>
   <v>       0.16666667       0.37500000       0.00000000 </v>
   <v>       0.33333333       0.37500000       0.00000000 </v>
   <v>       0.50000000       0.37500000       0.00000000 </v>
   <v>       0.00000000       0.50000000       0.00000000 </v>
   <v>       0.16666667       0.50000000       0.00000000 </v>
   <v>       0.33333333       0.50000000       0.00000000 </v>
   <v>       0.50000000       0.50000000       0.00000000 </v>
   <v>       0.00000000       0.00000000       0.25000000 </v>
   <v>       0.16666667       0.00000000       0.25000000 </v>
   <v>       0.33333333       0.00000000       0.25000000 </v>
   <v>       0.50000000       0.00000000       0.25000000 </v>
   <v>      -0.33333333       0.00000000       0.25000000 </v>
   <v>      -0.16666667       0.00000000       0.25000000 </v>
   <v>       0.00000000       0.12500000       0.25000000 </v>
   <v>       0.16666667       0.12500000       0.25000000 </v>
   <v>       0.33333333       0.12500000       0.25000000 </v>
   <v>       0.50000000       0.12500000       0.25000000 </v>
   <v>      -0.33333333       0.12500000       0.25000000 </v>
   <v>      -0.16666667       0.12500000       0.25000000 </v>
   <v>       0.00000000       0.25000000       0.25000000 </v>
   <v>       0.16666667       0.25000000       0.25000000 </v>
   <v>       0.33333333       0.25000000       0.25000000 </v>
   <v>       0.50000000       0.25000000       0.25000000 </v>
   <v>      -0.33333333       0.25000000       0.25000000 </v>
   <v>      -0.16666667       0.25000000       0.25000000 </v>
   <v>       0.00000000       0.37500000       0.25000000 </v>
   <v>       0.16666667       0.37500000       0.25000000 </v>
   <v>       0.33333333       0.37500000       0.25000000 </v>
   <v>       0.50000000       0.37500000       0.25000000 </v>
   <v>      -0.33333333       0.37500000       0.25000000 </v>
   <v>      -0.16666667       0.37500000       0.25000000 </v>
   <v>       0.00000000       0.50000000       0.25000000 </v>
   <v>       0.16666667       0.50000000       0.25000000 </v>
   <v>       0.33333333       0.50000000       0.25000000 </v>
   <v>       0.50000000       0.50000000       0.25000000 </v>
   <v>      -0.33333333       0.50000000       0.25000000 </v>
   <v>      -0.16666667       0.50000000       0.25000000 </v>
   <v>       0.00000000       0.00000000       0.50000000 </v>
   <v>       0.16666667       0.00000000       0.50000000 </v>
   <v>       0.33333333       0.00000000       0.50000000 </v>
   <v>       0.50000000       0.00000000       0.50000000 </v>
   <v>       0.00000000       0.12500000       0.50000000 </v>
   <v>       0.16666667       0.12500000       0.50000000 </v>
   <v>       0.33333333       0.12500000       0.50000000 </v>
   <v>       0.50000000       0.12500000       0.50000000 </v>
   <v>       0.00000000       0.25000000       0.50000000 </v>
   <v>       0.16666667       0.25000000       0.50000000 </v>
   <v>       0.33333333       0.25000000       0.50000000 </v>
   <v>       0.50000000       0.25000000       0.50000000 </v>
   <v>       0.00000000       0.37500000       0.50000000 </v>
   <v>       0.16666667       0.37500000       0.50000000 </v>
   <v>       0.33333333       0.37500000       0.50000000 </v>
   <v>       0.50000000       0.37500000       0.50000000 </v>
   <v>       0.00000000       0.50000000       0.50000000 </v>
   <v>       0.16666667       0.50000000       0.50000000 </v>
   <v>       0.33333333       0.50000000       0.50000000 </v>
   <v>       0.50000000       0.50000000       0.50000000 </v>
  </varray>
  <varray name="weights" >
   <v>       0.00520833 </v>
   <v>       0.01041667 </v>
   <v>       0.01041667 </v>
   <v>       0.00520833 </v>
   <v>       0.01041667 </v>
   <v>       0.02083333 </v>
   <v>       0.02083333 </v>
   <v>       0.01041667 </v>
   <v>       0.01041667 </v>
   <v>       0.02083333 </v>
   <v>       0.02083333 </v>
   <v>       0.01041667 </v>
   <v>       0.01041667 </v>
   <v>       0.02083333 </v>
   <v>       0.02083333 </v>
   <v>       0.01041667 </v>
   <v>       0.00520833 </v>
   <v>       0.01041667 </v>
   <v>       0.01041667 </v>
   <v>       0.00520833 </v>
   <v>       0.01041667 </v>
   <v>       0.01041667 </v>
   <v>       0.01041667 </v>
   <v>       0.01041667 </v>
   <v>       0.01041667 </v>
   <v>       0.01041667 </v>
   <v>       0.02083333 </v>
   <v>       0.02083333 </v>
   <v>       0.02083333 </v>
   <v>       0.02083333 </v>
   <v>       0.02083333 </v>
   <v>       0.02083333 </v>
   <v>       0.02083333 </v>
   <v>       0.02083333 </v>
   <v>       0.02083333 </v>
   <v>       0.02083333 </v>
   <v>       0.02083333 </v>
   <v>       0.02083333 </v>
   <v>       0.02083333 </v>
   <v>       0.02083333 </v>
   <v>       0.02083333 </v>
   <v>       0.02083333 </v>
   <v>       0.02083333 </v>
   <v>       0.02083333 </v>
   <v>       0.01041667 </v>
   <v>       0.01041667 </v>
   <v>       0.01041667 </v>
   <v>       0.01041667 </v>
   <v>       0.01041667 </v>
   <v>       0.01041667 </v>
   <v>       0.00520833 </v>
   <v>       0.01041667 </v>
   <v>       0.01041667 </v>
   <v>       0.00520833 </v>
   <v>       0.01041667 </v>
   <v>       0.02083333 </v>
   <v>       0.02083333 </v>
   <v>       0.01041667 </v>
   <v>       0.01041667 </v>
   <v>       0.02083333 </v>
   <v>       0.02083333 </v>
   <v>       0.01041667 </v>
   <v>       0.01041667 </v>
   <v>       0.02083333 </v>
   <v>       0.02083333 </v>
   <v>       0.01041667 </v>
   <v>       0.00520833 </v>
   <v>       0.01041667 </v>
   <v>       0.01041667 </v>
   <v>       0.00520833 </v>
  </varray>
 </kpoints>
 <parameters>
  <separator name="general" >
   <i type="string" name="SYSTEM">bulk</i>
   <i type="logical" name="LCOMPAT"> F  </i>
  </separator>
  <separator name="electronic" >
   <i type="string" name="PREC">normal</i>
   <i name="ENMAX">    450.00000000</i>
   <i name="ENAUG">    416.23000000</i>
   <i name="EDIFF">      0.00000100</i>
   <i type="int" name="IALGO">    68</i>
   <i type="int" name="IWAVPR">    11</i>
   <i type="int" name="NBANDS">    60</i>
   <i name="NELECT">     92.00000000</i>
   <i type="int" name="TURBO">     0</i>
   <i type="int" name="IRESTART">     0</i>
   <i type="int" name="NREBOOT">     0</i>
   <i type="int" name="NMIN">     0</i>
   <i name="EREF">      0.00000000</i>
   <separator name="electronic smearing" >
    <i type="int" name="ISMEAR">     0</i>
    <i name="SIGMA">      0.03000000</i>
    <i name="KSPACING">      0.50000000</i>
    <i type="logical" name="KGAMMA"> T  </i>
   </separator>
   <separator name="electronic projectors" >
    <i type="logical" name="LREAL"> T  </i>
    <v name="ROPT">     -0.00050000     -0.00050000</v>
    <i type="int" name="LMAXPAW">  -100</i>
    <i type="int" name="LMAXMIX">     2</i>
    <i type="logical" name="NLSPLINE"> F  </i>
   </separator>
   <separator name="electronic startup" >
    <i type="int" name="ISTART">     0</i>
    <i type="int" name="ICHARG">     2</i>
    <i type="int" name="INIWAV">     1</i>
   </separator>
   <separator name="electronic spin" >
    <i type="int" name="ISPIN">     1</i>
    <i type="logical" name="LNONCOLLINEAR"> F  </i>
    <v name="MAGMOM">      1.00000000      1.00000000      1.00000000      1.00000000      1.00000000      1.00000000      1.00000000      1.00000000      1.00000000      1.00000000      1.00000000      1.00000000</v>
    <i name="NUPDOWN">     -1.00000000</i>
    <i type="logical" name="LSORBIT"> F  </i>
    <v name="SAXIS">      0.00000000      0.00000000      1.00000000</v>
    <i type="logical" name="LSPIRAL"> F  </i>
    <v name="QSPIRAL">      0.00000000      0.00000000      0.00000000</v>
    <i type="logical" name="LZEROZ"> F  </i>
   </separator>
   <separator name="electronic exchange-correlation" >
    <i type="logical" name="LASPH"> F  </i>
    <i type="logical" name="LMETAGGA"> F  </i>
   </separator>
   <separator name="electronic convergence" >
    <i type="int" name="NELM">   100</i>
    <i type="int" name="NELMDL">    -7</i>
    <i type="int" name="NELMIN">     5</i>
    <i name="ENINI">    450.00000000</i>
    <separator name="electronic convergence detail" >
     <i type="logical" name="LDIAG"> T  </i>
     <i type="logical" name="LSUBROT"> F  </i>
     <i name="WEIMIN">      0.00100000</i>
     <i name="EBREAK">      0.00000000</i>
     <i name="DEPER">      0.30000000</i>
     <i type="int" name="NRMM">     4</i>
     <i name="TIME">      0.40000000</i>
    </separator>
   </separator>
   <separator name="electronic mixer" >
    <i name="AMIX">      0.10000000</i>
    <i name="BMIX">      0.01000000</i>
    <i name="AMIN">      0.10000000</i>
    <i name="AMIX_MAG">      0.40000000</i>
    <i name="BMIX_MAG">      0.01000000</i>
    <separator name="electronic mixer details" >
     <i type="int" name="IMIX">     4</i>
     <i type="logical" name="MIXFIRST"> F  </i>
     <i type="int" name="MAXMIX">   -45</i>
     <i name="WC">    100.00000000</i>
     <i type="int" name="INIMIX">     1</i>
     <i type="int" name="MIXPRE">     1</i>
     <i type="int" name="MREMOVE">     5</i>
    </separator>
   </separator>
   <separator name="electronic dipolcorrection" >
    <i type="logical" name="LDIPOL"> F  </i>
    <i type="logical" name="LMONO"> F  </i>
    <i type="int" name="IDIPOL">     0</i>
    <i name="EPSILON">      1.00000000</i>
    <v name="DIPOL">   -100.00000000   -100.00000000   -100.00000000</v>
    <i name="EFIELD">      0.00000000</i>
   </separator>
  </separator>
  <separator name="grids" >
   <i type="int" name="NGX">    30</i>
   <i type="int" name="NGY">    24</i>
   <i type="int" name="NGZ">    48</i>
   <i type="int" name="NGXF">    60</i>
   <i type="int" name="NGYF">    48</i>
   <i type="int" name="NGZF">    96</i>
   <i type="logical" name="ADDGRID"> F  </i>
  </separator>
  <separator name="ionic" >
   <i type="int" name="NSW">   100</i>
   <i type="int" name="IBRION">     2</i>
   <i type="int" name="MDALGO">     0</i>
   <i type="int" name="ISIF">     3</i>
   <i name="PSTRESS">      0.00000000</i>
   <i name="EDIFFG">     -0.02000000</i>
   <i type="int" name="NFREE">     2</i>
   <i name="POTIM">      0.15000000</i>
   <i name="SMASS">     -3.00000000</i>
   <i name="SCALEE">      1.00000000</i>
  </separator>
  <separator name="ionic md" >
   <i name="TEBEG">      0.00010000</i>
   <i name="TEEND">      0.00010000</i>
   <i type="int" name="NBLOCK">     1</i>
   <i type="int" name="KBLOCK">   100</i>
   <i type="int" name="NPACO">   256</i>
   <i name="APACO">     16.00000000</i>
  </separator>
  <separator name="symmetry" >
   <i type="int" name="ISYM">     2</i>
   <i name="SYMPREC">      0.00001000</i>
  </separator>
  <separator name="dos" >
   <i type="int" name="LORBIT">     0</i>
   <v name="RWIGS">     -1.00000000     -1.00000000</v>
   <i type="int" name="NEDOS">   301</i>
   <i name="EMIN">     10.00000000</i>
   <i name="EMAX">    -10.00000000</i>
   <i name="EFERMI">      0.00000000</i>
  </separator>
  <separator name="writing" >
   <i type="int" name="NWRITE">     0</i>
   <i type="logical" name="LWAVE"> F  </i>
   <i type="logical" name="LDOWNSAMPLE"> F  </i>
   <i type="logical" name="LCHARG"> F  </i>
   <i type="logical" name="LPARD"> F  </i>
   <i type="logical" name="LVTOT"> F  </i>
   <i type="logical" name="LVHAR"> F  </i>
   <i type="logical" name="LELF"> F  </i>
   <i type="logical" name="LOPTICS"> F  </i>
   <v name="STM">      0.00000000      0.00000000      0.00000000      0.00000000      0.00000000      0.00000000      0.00000000</v>
  </separator>
  <separator name="performance" >
   <i type="int" name="NPAR">    12</i>
   <i type="int" name="NSIM">     4</i>
   <i type="int" name="NBLK">    -1</i>
   <i type="logical" name="LPLANE"> T  </i>
   <i type="logical" name="LSCALAPACK"> T  </i>
   <i type="logical" name="LSCAAWARE"> F  </i>
   <i type="logical" name="LSCALU"> F  </i>
   <i type="logical" name="LASYNC"> F  </i>
   <i type="logical" name="LORBITALREAL"> F  </i>
  </separator>
  <separator name="miscellaneous" >
   <i type="int" name="IDIOT">     3</i>
   <i type="int" name="ISPECIAL">     0</i>
   <i type="logical" name="LMUSIC"> F  </i>
   <v name="POMASS">    114.82000000    106.42000000</v>
   <v name="DARWINR">      0.00000000      0.00000000</v>
   <v name="DARWINV">      1.00000000      1.00000000</v>
   <i type="logical" name="LCORR"> T  </i>
  </separator>
  <i type="logical" name="GGA_COMPAT"> T  </i>
  <i type="logical" name="LBERRY"> F  </i>
  <i type="int" name="ICORELEVEL">     0</i>
  <i type="logical" name="LDAU"> F  </i>
  <i type="int" name="I_CONSTRAINED_M">     0</i>
  <separator name="electronic exchange-correlation" >
   <i type="string" name="GGA">PE</i>
   <i type="int" name="VOSKOWN">     0</i>
   <i type="logical" name="LHFCALC"> F  </i>
   <i type="string" name="PRECFOCK"></i>
   <i type="logical" name="LSYMGRAD"> F  </i>
   <i type="logical" name="LHFONE"> F  </i>
   <i type="logical" name="LRHFCALC"> F  </i>
   <i type="logical" name="LTHOMAS"> F  </i>
   <i type="logical" name="LMODELHF"> F  </i>
   <i name="ENCUT4O">     -1.00000000</i>
   <i type="int" name="EXXOEP">     0</i>
   <i type="int" name="FOURORBIT">     0</i>
   <i name="AEXX">      0.00000000</i>
   <i name="HFALPHA">      0.00000000</i>
   <i name="MCALPHA">      0.00000000</i>
   <i name="ALDAX">      1.00000000</i>
   <i name="AGGAX">      1.00000000</i>
   <i name="ALDAC">      1.00000000</i>
   <i name="AGGAC">      1.00000000</i>
   <i type="int" name="NKREDX">     1</i>
   <i type="int" name="NKREDY">     1</i>
   <i type="int" name="NKREDZ">     1</i>
   <i type="logical" name="SHIFTRED"> F  </i>
   <i type="logical" name="ODDONLY"> F  </i>
   <i type="logical" name="EVENONLY"> F  </i>
   <i type="int" name="LMAXFOCK">     0</i>
   <i type="int" name="NMAXFOCKAE">     0</i>
   <i type="logical" name="LFOCKAEDFT"> F  </i>
   <i name="HFSCREEN">      0.00000000</i>
   <i name="HFSCREENC">      0.00000000</i>
   <i type="int" name="NBANDSGWLOW">     0</i>
  </separator>
  <separator name="vdW DFT" >
   <i type="logical" name="LUSE_VDW"> F  </i>
   <i name="Zab_VDW">     -0.84910000</i>
   <i name="PARAM1">      0.12340000</i>
   <i name="PARAM2">      1.00000000</i>
   <i name="PARAM3">      0.00000000</i>
  </separator>
  <separator name="model GW" >
   <i type="int" name="MODEL_GW">     0</i>
   <i name="MODEL_EPS0">      9.74436436</i>
   <i name="MODEL_ALPHA">      1.00000000</i>
  </separator>
  <separator name="linear response parameters" >
   <i type="logical" name="LEPSILON"> F  </i>
   <i type="logical" name="LRPA"> F  </i>
   <i type="logical" name="LNABLA"> F  </i>
   <i type="logical" name="LVEL"> F  </i>
   <i type="int" name="KINTER">     0</i>
   <i name="CSHIFT">      0.10000000</i>
   <i name="OMEGAMAX">     -1.00000000</i>
   <i name="DEG_THRESHOLD">      0.00200000</i>
   <i name="RTIME">     -0.10000000</i>
   <i name="WPLASMAI">      0.00000000</i>
   <v name="DFIELD">      0.00000000      0.00000000      0.00000000</v>
   <v name="WPLASMA">      0.00000000      0.00000000      0.00000000      0.00000000      0.00000000      0.00000000      0.00000000      0.00000000      0.00000000</v>
  </separator>
  <separator name="orbital magnetization" >
   <i type="logical" name="NUCIND"> F  </i>
   <v name="MAGPOS">      0.00000000      0.00000000      0.00000000</v>
   <i type="logical" name="LNICSALL"> T  </i>
   <i type="logical" name="ORBITALMAG"> F  </i>
   <i type="logical" name="LMAGBLOCH"> F  </i>
   <i type="logical" name="LCHIMAG"> F  </i>
   <i type="logical" name="LGAUGE"> T  </i>
   <i type="int" name="MAGATOM">     0</i>
   <v name="MAGDIPOL">      0.00000000      0.00000000      0.00000000</v>
   <v name="AVECCONST">      0.00000000      0.00000000      0.00000000</v>
  </separator>
  <separator name="response functions" >
   <i type="logical" name="LADDER"> F  </i>
   <i type="logical" name="LRPAFORCE"> F  </i>
   <i type="logical" name="LFXC"> F  </i>
   <i type="logical" name="LHARTREE"> T  </i>
   <i type="int" name="IBSE">     0</i>
   <v type="int" name="KPOINT">    -1     0     0     0</v>
   <i type="logical" name="LTCTE"> F  </i>
   <i type="logical" name="LTETE"> F  </i>
   <i type="logical" name="LTRIPLET"> F  </i>
   <i type="logical" name="LFXCEPS"> F  </i>
   <i type="logical" name="LFXHEG"> F  </i>
   <i type="int" name="NATURALO">     2</i>
   <i type="logical" name="L2ORDER"> F  </i>
   <i type="logical" name="LMP2LT"> F  </i>
   <i type="logical" name="LUSEW"> F  </i>
   <i name="ENCUTGW">     -2.00000000</i>
   <i name="ENCUTGWSOFT">     -2.00000000</i>
   <i name="ENCUTLF">     -1.00000000</i>
   <i type="int" name="LMAXMP2">    -1</i>
   <i name="SCISSOR">      0.00000000</i>
   <i type="int" name="NOMEGA">     0</i>
   <i type="int" name="NOMEGAR">     0</i>
   <i type="int" name="NBANDSGW">    -1</i>
   <i type="int" name="NBANDSO">    -1</i>
   <i type="int" name="NBANDSV">    -1</i>
   <i type="int" name="NELM">   100</i>
   <i type="int" name="NELMHF">     1</i>
   <i type="int" name="DIM">     3</i>
   <i type="int" name="ANTIRES">     0</i>
   <i name="OMEGAMAX">    -30.00000000</i>
   <i name="OMEGAMIN">    -30.00000000</i>
   <i name="OMEGATL">   -200.00000000</i>
   <i type="int" name="OMEGAGRID">   140</i>
   <i name="CSHIFT">     -0.10000000</i>
   <i type="logical" name="SELFENERGY"> F  </i>
   <i type="logical" name="LSPECTRAL"> F  </i>
   <i type="logical" name="LSPECTRALGW"> F  </i>
   <i type="logical" name="LSINGLES"> F  </i>
   <i type="logical" name="LFERMIGW"> F  </i>
   <i type="logical" name="ODDONLYGW"> F  </i>
   <i type="logical" name="EVENONLYGW"> F  </i>
   <i type="int" name="NKREDLFX">     1</i>
   <i type="int" name="NKREDLFY">     1</i>
   <i type="int" name="NKREDLFZ">     1</i>
   <i type="int" name="MAXMEM">  2800</i>
   <i type="int" name="TELESCOPE">     0</i>
   <i type="int" name="TAUPAR">     1</i>
   <i type="int" name="OMEGAPAR">    -1</i>
   <i name="LAMBDA">      1.00000000</i>
  </separator>
  <separator name="External order field" >
   <i name="OFIELD_KAPPA">      0.00000000</i>
   <v name="OFIELD_K">      0.00000000      0.00000000      0.00000000</v>
   <i name="OFIELD_Q6_NEAR">      0.00000000</i>
   <i name="OFIELD_Q6_FAR">      0.00000000</i>
   <i name="OFIELD_A">      0.00000000</i>
  </separator>
 </parameters>
 <atominfo>
  <atoms>      12 </atoms>
  <types>       2 </types>
  <array name="atoms" >
   <dimension dim="1">ion</dimension>
   <field type="string">element</field>
   <field type="int">atomtype</field>
   <set>
    <rc><c>In</c><c>   1</c></rc>
    <rc><c>In</c><c>   1</c></rc>
    <rc><c>In</c><c>   1</c></rc>
    <rc><c>In</c><c>   1</c></rc>
    <rc><c>Pd</c><c>   2</c></rc>
    <rc><c>Pd</c><c>   2</c></rc>
    <rc><c>Pd</c><c>   2</c></rc>
    <rc><c>Pd</c><c>   2</c></rc>
    <rc><c>Pd</c><c>   2</c></rc>
    <rc><c>Pd</c><c>   2</c></rc>
    <rc><c>Pd</c><c>   2</c></rc>
    <rc><c>Pd</c><c>   2</c></rc>
   </set>
  </array>
  <array name="atomtypes" >
   <dimension dim="1">type</dimension>
   <field type="int">atomspertype</field>
   <field type="string">element</field>
   <field>mass</field>
   <field>valence</field>
   <field type="string">pseudopotential</field>
   <set>
    <rc><c>   4</c><c>In</c><c>    114.82000000</c><c>      3.00000000</c><c>  PAW_PBE In 08Apr2002                  </c></rc>
    <rc><c>   8</c><c>Pd</c><c>    106.42000000</c><c>     10.00000000</c><c>  PAW_PBE Pd 04Jan2005                  </c></rc>
   </set>
  </array>
 </atominfo>
 <structure name="initialpos" >
  <crystal>
   <varray name="basis" >
    <v>       5.61675978       0.00000000       0.00000000 </v>
    <v>       0.00000000       4.21710014       0.00000000 </v>
    <v>       0.00000000       0.00000000       8.22780037 </v>
   </varray>
   <i name="volume">    194.88728712 </i>
   <varray name="rec_basis" >
    <v>       0.17803859       0.00000000       0.00000000 </v>
    <v>       0.00000000       0.23712977       0.00000000 </v>
    <v>       0.00000000       0.00000000       0.12153917 </v>
   </varray>
  </crystal>
  <varray name="positions" >
   <v>       0.82220000       0.25000000       0.39890000 </v>
   <v>       0.17780000       0.75000000       0.60109997 </v>
   <v>       0.67780000       0.75000000       0.89890003 </v>
   <v>       0.32220000       0.25000000       0.10110000 </v>
   <v>       0.83999997       0.25000000       0.07230000 </v>
   <v>       0.16000003       0.75000000       0.92769998 </v>
   <v>       0.66000003       0.75000000       0.57230002 </v>
   <v>       0.33999997       0.25000000       0.42769998 </v>
   <v>       0.93290001       0.25000000       0.73180002 </v>
   <v>       0.06709999       0.75000000       0.26819998 </v>
   <v>       0.56709999       0.75000000       0.23180002 </v>
   <v>       0.43290001       0.25000000       0.76819998 </v>
  </varray>
  <varray name="selective"  type="logical" >
   <v type="logical" >  F  F  F </v>
   <v type="logical" >  T  T  T </v>
   <v type="logical" >  T  T  T </v>
   <v type="logical" >  T  T  T </v>
   <v type="logical" >  T  T  T </v>
   <v type="logical" >  T  T  T </v>
   <v type="logical" >  T  T  T </v>
   <v type="logical" >  T  T  T </v>
   <v type="logical" >  T  T  T </v>
   <v type="logical" >  T  T  T </v>
   <v type="logical" >  T  T  T </v>
   <v type="logical" >  T  T  T </v>
  </varray>
  <nose>
   <v>      -3.00000000       0.00000000       0.00010000       0.00010000 </v>
  </nose>
 </structure>
 <calculation>
  <scstep>
   <time name="dav">   12.04   12.19</time>
   <time name="total">   12.08   12.23</time>
   <energy>
    <i name="alphaZ">    244.15143891 </i>
    <i name="ewald">  -6351.20328207 </i>
    <i name="hartreedc">  -1501.68061469 </i>
    <i name="XCdc">   -455.30082249 </i>
    <i name="pawpsdc">   6830.79749290 </i>
    <i name="pawaedc">  -6095.50152480 </i>
    <i name="eentropy">     -0.00179637 </i>
    <i name="bandstr">   1144.20381805 </i>
    <i name="atom">   6693.14607468 </i>
    <i name="e_fr_energy">    508.61078412 </i>
    <i name="e_wo_entrp">    508.61258050 </i>
    <i name="e_0_energy">    508.61168231 </i>
   </energy>
  </scstep>
  <scstep>
   <time name="dav">   12.94   13.09</time>
   <time name="total">   12.95   13.09</time>
   <energy>
    <i name="e_fr_energy">    -42.65415490 </i>
    <i name="e_wo_entrp">    -42.65159500 </i>
    <i name="e_0_energy">    -42.65287495 </i>
   </energy>
  </scstep>
  <scstep>
   <time name="dav">   13.69   13.85</time>
   <time name="total">   13.69   13.85</time>
   <energy>
    <i name="e_fr_energy">    -59.67696860 </i>
    <i name="e_wo_entrp">    -59.67285712 </i>
    <i name="e_0_energy">    -59.67491286 </i>
   </energy>
  </scstep>
  <scstep>
   <time name="dav">   12.77   12.92</time>
   <time name="total">   12.77   12.92</time>
   <energy>
    <i name="e_fr_energy">    -59.86669143 </i>
    <i name="e_wo_entrp">    -59.86254177 </i>
    <i name="e_0_energy">    -59.86461660 </i>
   </energy>
  </scstep>
  <scstep>
   <time name="dav">   13.76   13.93</time>
   <time name="total">   13.77   13.93</time>
   <energy>
    <i name="e_fr_energy">    -59.86995742 </i>
    <i name="e_wo_entrp">    -59.86580708 </i>
    <i name="e_0_energy">    -59.86788225 </i>
   </energy>
  </scstep>
  <scstep>
   <time name="dav">   12.99   13.14</time>
   <time name="total">   12.99   13.14</time>
   <energy>
    <i name="e_fr_energy">    -59.87005352 </i>
    <i name="e_wo_entrp">    -59.86590316 </i>
    <i name="e_0_energy">    -59.86797834 </i>
   </energy>
  </scstep>
  <scstep>
   <time name="dav">   13.72   13.88</time>
   <time name="total">   14.04   14.20</time>
   <energy>
    <i name="e_fr_energy">    -59.87005688 </i>
    <i name="e_wo_entrp">    -59.86590652 </i>
    <i name="e_0_energy">    -59.86798170 </i>
   </energy>
  </scstep>
  <scstep>
   <time name="diag">    1.56    1.59</time>
   <time name="diis">    5.83    5.89</time>
   <time name="orth">    0.24    0.25</time>
   <time name="total">    7.97    8.07</time>
   <energy>
    <i name="e_fr_energy">    -59.23884890 </i>
    <i name="e_wo_entrp">    -59.23529270 </i>
    <i name="e_0_energy">    -59.23707080 </i>
   </energy>
  </scstep>
  <scstep>
   <time name="diag">    1.56    1.58</time>
   <time name="diis">    5.83    5.90</time>
   <time name="orth">    0.24    0.25</time>
   <time name="total">    7.98    8.08</time>
   <energy>
    <i name="e_fr_energy">    -58.40999928 </i>
    <i name="e_wo_entrp">    -58.40724342 </i>
    <i name="e_0_energy">    -58.40862135 </i>
   </energy>
  </scstep>
  <scstep>
   <time name="diag">    1.56    1.58</time>
   <time name="diis">    5.81    5.87</time>
   <time name="orth">    0.24    0.25</time>
   <time name="total">    7.95    8.05</time>
   <energy>
    <i name="e_fr_energy">    -58.14310098 </i>
    <i name="e_wo_entrp">    -58.14059783 </i>
    <i name="e_0_energy">    -58.14184941 </i>
   </energy>
  </scstep>
  <scstep>
   <time name="diag">    1.56    1.58</time>
   <time name="diis">    5.91    5.98</time>
   <time name="orth">    0.24    0.25</time>
   <time name="total">    8.06    8.16</time>
   <energy>
    <i name="e_fr_energy">    -58.10597871 </i>
    <i name="e_wo_entrp">    -58.10347026 </i>
    <i name="e_0_energy">    -58.10472449 </i>
   </energy>
  </scstep>
  <scstep>
   <time name="diag">    1.56    1.58</time>
   <time name="diis">    5.80    5.87</time>
   <time name="orth">    0.24    0.25</time>
   <time name="total">    7.95    8.05</time>
   <energy>
    <i name="e_fr_energy">    -58.09595815 </i>
    <i name="e_wo_entrp">    -58.09339532 </i>
    <i name="e_0_energy">    -58.09467674 </i>
   </energy>
  </scstep>
  <scstep>
   <time name="diag">    1.56    1.58</time>
   <time name="diis">    5.81    5.89</time>
   <time name="orth">    0.24    0.24</time>
   <time name="total">    7.96    8.07</time>
   <energy>
    <i name="e_fr_energy">    -58.09412264 </i>
    <i name="e_wo_entrp">    -58.09152937 </i>
    <i name="e_0_energy">    -58.09282601 </i>
   </energy>
  </scstep>
  <scstep>
   <time name="diag">    1.56    1.58</time>
   <time name="diis">    5.82    5.89</time>
   <time name="orth">    0.24    0.24</time>
   <time name="total">    7.97    8.06</time>
   <energy>
    <i name="e_fr_energy">    -58.09243695 </i>
    <i name="e_wo_entrp">    -58.08985311 </i>
    <i name="e_0_energy">    -58.09114503 </i>
   </energy>
  </scstep>
  <scstep>
   <time name="diag">    1.57    1.59</time>
   <time name="diis">    5.85    5.92</time>
   <time name="orth">    0.24    0.24</time>
   <time name="total">    7.99    8.09</time>
   <energy>
    <i name="e_fr_energy">    -58.09255045 </i>
    <i name="e_wo_entrp">    -58.08997215 </i>
    <i name="e_0_energy">    -58.09126130 </i>
   </energy>
  </scstep>
  <scstep>
   <time name="diag">    1.56    1.58</time>
   <time name="diis">    5.82    5.88</time>
   <time name="orth">    0.24    0.24</time>
   <time name="total">    7.96    8.05</time>
   <energy>
    <i name="e_fr_energy">    -58.09246804 </i>
    <i name="e_wo_entrp">    -58.08990466 </i>
    <i name="e_0_energy">    -58.09118635 </i>
   </energy>
  </scstep>
  <scstep>
   <time name="diag">    1.56    1.58</time>
   <time name="diis">    5.80    5.87</time>
   <time name="orth">    0.24    0.24</time>
   <time name="total">    7.95    8.05</time>
   <energy>
    <i name="e_fr_energy">    -58.09242213 </i>
    <i name="e_wo_entrp">    -58.08985767 </i>
    <i name="e_0_energy">    -58.09113990 </i>
   </energy>
  </scstep>
  <scstep>
   <time name="diag">    1.57    1.59</time>
   <time name="diis">    5.82    5.89</time>
   <time name="orth">    0.24    0.24</time>
   <time name="total">    7.96    8.06</time>
   <energy>
    <i name="e_fr_energy">    -58.09242168 </i>
    <i name="e_wo_entrp">    -58.08985525 </i>
    <i name="e_0_energy">    -58.09113847 </i>
   </energy>
  </scstep>
  <scstep>
   <time name="diag">    1.56    1.58</time>
   <time name="diis">    3.61    3.65</time>
   <time name="orth">    0.24    0.24</time>
   <time name="total">    5.76    5.82</time>
   <energy>
    <i name="e_fr_energy">    -58.09241894 </i>
    <i name="e_wo_entrp">    -58.08985195 </i>
    <i name="e_0_energy">    -58.09113545 </i>
   </energy>
  </scstep>
  <scstep>
   <time name="diag">    1.56    1.59</time>
   <time name="diis">    3.80    3.85</time>
   <time name="orth">    0.24    0.24</time>
   <time name="total">    5.95    6.02</time>
   <energy>
    <i name="e_fr_energy">    -58.09241610 </i>
    <i name="e_wo_entrp">    -58.08984905 </i>
    <i name="e_0_energy">    -58.09113258 </i>
   </energy>
  </scstep>
  <scstep>
   <time name="diag">    1.56    1.59</time>
   <time name="diis">    3.51    3.56</time>
   <time name="orth">    0.24    0.24</time>
   <time name="total">    5.35    5.42</time>
   <energy>
    <i name="alphaZ">    244.15143891 </i>
    <i name="ewald">  -6351.20328207 </i>
    <i name="hartreedc">  -1454.53796436 </i>
    <i name="XCdc">   -454.98681335 </i>
    <i name="pawpsdc">   9128.80320717 </i>
    <i name="pawaedc">  -8411.76128261 </i>
    <i name="eentropy">     -0.00256709 </i>
    <i name="bandstr">    548.29877290 </i>
    <i name="atom">   6693.14607468 </i>
    <i name="e_fr_energy">    -58.09241582 </i>
    <i name="e_wo_entrp">    -58.08984873 </i>
    <i name="e_0_energy">    -58.09113228 </i>
   </energy>
  </scstep>
  <structure>
   <crystal>
    <varray name="basis" >
     <v>       5.61675978       0.00000000       0.00000000 </v>
     <v>       0.00000000       4.21710014       0.00000000 </v>
     <v>       0.00000000       0.00000000       8.22780037 </v>
    </varray>
    <i name="volume">    194.88728712 </i>
    <varray name="rec_basis" >
     <v>       0.17803859       0.00000000       0.00000000 </v>
     <v>       0.00000000       0.23712977       0.00000000 </v>
     <v>       0.00000000       0.00000000       0.12153917 </v>
    </varray>
   </crystal>
   <varray name="positions" >
    <v>       0.82220000       0.25000000       0.39890000 </v>
    <v>       0.17780000       0.75000000       0.60109997 </v>
    <v>       0.67780000       0.75000000       0.89890003 </v>
    <v>       0.32220000       0.25000000       0.10110000 </v>
    <v>       0.83999997       0.25000000       0.07230000 </v>
    <v>       0.16000003       0.75000000       0.92769998 </v>
    <v>       0.66000003       0.75000000       0.57230002 </v>
    <v>       0.33999997       0.25000000       0.42769998 </v>
    <v>       0.93290001       0.25000000       0.73180002 </v>
    <v>       0.06709999       0.75000000       0.26819998 </v>
    <v>       0.56709999       0.75000000       0.23180002 </v>
    <v>       0.43290001       0.25000000       0.76819998 </v>
   </varray>
  </structure>
  <varray name="forces" >
   <v>       0.03734328       0.00000000       0.12749044 </v>
   <v>      -0.03734373       0.00000000      -0.12748961 </v>
   <v>      -0.03734348       0.00000000       0.12748970 </v>
   <v>       0.03734288       0.00000000      -0.12749113 </v>
   <v>       0.02211029       0.00000000      -0.06573226 </v>
   <v>      -0.02211007       0.00000000       0.06573198 </v>
   <v>      -0.02210764       0.00000000      -0.06573347 </v>
   <v>       0.02210835       0.00000000       0.06573449 </v>
   <v>       0.00897062       0.00000000      -0.03916170 </v>
   <v>      -0.00897127       0.00000000       0.03916103 </v>
   <v>      -0.00896658       0.00000000      -0.03915614 </v>
   <v>       0.00896734       0.00000000       0.03915666 </v>
  </varray>
  <varray name="stress" >
   <v>      68.62982877       0.00000000       0.00001832 </v>
   <v>       0.00000000      64.32685786       0.00000000 </v>
   <v>       0.00001825       0.00000000      71.11797769 </v>
  </varray>
  <energy>
   <i name="e_fr_energy">    -58.09241582 </i>
   <i name="e_wo_entrp">    -58.09113228 </i>
   <i name="e_0_energy">     -0.00256709 </i>
  </energy>
  <time name="totalsc">  209.29  211.80</time>
 </calculation>
 <calculation>
  <scstep>
   <time name="dav">   11.90   12.03</time>
   <time name="total">   12.24   12.38</time>
   <energy>
    <i name="alphaZ">    236.98541876 </i>
    <i name="ewald">  -6288.56376463 </i>
    <i name="hartreedc">  -1440.05330832 </i>
    <i name="XCdc">   -456.75893725 </i>
    <i name="pawpsdc">   9128.64457926 </i>
    <i name="pawaedc">  -8411.60155344 </i>
    <i name="eentropy">     -0.00294279 </i>
    <i name="bandstr">    478.82330860 </i>
    <i name="atom">   6693.14607468 </i>
    <i name="e_fr_energy">    -59.38112512 </i>
    <i name="e_wo_entrp">    -59.37818233 </i>
    <i name="e_0_energy">    -59.37965373 </i>
   </energy>
  </scstep>
  <scstep>
   <time name="diag">    1.56    1.59</time>
   <time name="diis">    5.82    5.89</time>
   <time name="orth">    0.24    0.24</time>
   <time name="total">    7.97    8.07</time>
   <energy>
    <i name="e_fr_energy">    -58.74437006 </i>
    <i name="e_wo_entrp">    -58.74198168 </i>
    <i name="e_0_energy">    -58.74317587 </i>
   </energy>
  </scstep>
  <scstep>
   <time name="diag">    1.58    1.59</time>
   <time name="diis">    5.81    5.82</time>
   <time name="orth">    0.24    0.24</time>
   <time name="total">    7.97    8.00</time>
   <energy>
    <i name="e_fr_energy">    -58.28625216 </i>
    <i name="e_wo_entrp">    -58.28357771 </i>
    <i name="e_0_energy">    -58.28491493 </i>
   </energy>
  </scstep>
  <scstep>
   <time name="diag">    1.57    1.59</time>
   <time name="diis">    5.74    5.76</time>
   <time name="orth">    0.25    0.25</time>
   <time name="total">    7.92    7.94</time>
   <energy>
    <i name="e_fr_energy">    -58.26990477 </i>
    <i name="e_wo_entrp">    -58.26721277 </i>
    <i name="e_0_energy">    -58.26855877 </i>
   </energy>
  </scstep>
  <scstep>
   <time name="diag">    1.58    1.59</time>
   <time name="diis">    5.78    5.79</time>
   <time name="orth">    0.25    0.25</time>
   <time name="total">    7.96    7.98</time>
   <energy>
    <i name="e_fr_energy">    -58.25581720 </i>
    <i name="e_wo_entrp">    -58.25302590 </i>
    <i name="e_0_energy">    -58.25442155 </i>
   </energy>
  </scstep>
  <scstep>
   <time name="diag">    1.57    1.58</time>
   <time name="diis">    5.82    5.84</time>
   <time name="orth">    0.25    0.25</time>
   <time name="total">    7.99    8.03</time>
   <energy>
    <i name="e_fr_energy">    -58.25325491 </i>
    <i name="e_wo_entrp">    -58.25047689 </i>
    <i name="e_0_energy">    -58.25186590 </i>
   </energy>
  </scstep>
  <scstep>
   <time name="diag">    1.57    1.58</time>
   <time name="diis">    5.80    5.81</time>
   <time name="orth">    0.24    0.24</time>
   <time name="total">    7.96    7.99</time>
   <energy>
    <i name="e_fr_energy">    -58.25309339 </i>
    <i name="e_wo_entrp">    -58.25030800 </i>
    <i name="e_0_energy">    -58.25170070 </i>
   </energy>
  </scstep>
  <scstep>
   <time name="diag">    1.57    1.58</time>
   <time name="diis">    5.80    5.81</time>
   <time name="orth">    0.24    0.24</time>
   <time name="total">    7.96    7.99</time>
   <energy>
    <i name="e_fr_energy">    -58.25240151 </i>
    <i name="e_wo_entrp">    -58.24963428 </i>
    <i name="e_0_energy">    -58.25101790 </i>
   </energy>
  </scstep>
  <scstep>
   <time name="diag">    1.58    1.59</time>
   <time name="diis">    5.78    5.80</time>
   <time name="orth">    0.24    0.24</time>
   <time name="total">    7.95    7.98</time>
   <energy>
    <i name="e_fr_energy">    -58.25238303 </i>
    <i name="e_wo_entrp">    -58.24961876 </i>
    <i name="e_0_energy">    -58.25100089 </i>
   </energy>
  </scstep>
  <scstep>
   <time name="diag">    1.58    1.59</time>
   <time name="diis">    5.80    5.81</time>
   <time name="orth">    0.24    0.24</time>
   <time name="total">    7.97    8.00</time>
   <energy>
    <i name="e_fr_energy">    -58.25231343 </i>
    <i name="e_wo_entrp">    -58.24953870 </i>
    <i name="e_0_energy">    -58.25092606 </i>
   </energy>
  </scstep>
  <scstep>
   <time name="diag">    1.58    1.59</time>
   <time name="diis">    5.76    5.77</time>
   <time name="orth">    0.24    0.24</time>
   <time name="total">    7.93    7.96</time>
   <energy>
    <i name="e_fr_energy">    -58.25231047 </i>
    <i name="e_wo_entrp">    -58.24953581 </i>
    <i name="e_0_energy">    -58.25092314 </i>
   </energy>
  </scstep>
  <scstep>
   <time name="diag">    1.57    1.59</time>
   <time name="diis">    5.02    5.03</time>
   <time name="orth">    0.24    0.24</time>
   <time name="total">    7.18    7.21</time>
   <energy>
    <i name="e_fr_energy">    -58.25231285 </i>
    <i name="e_wo_entrp">    -58.24953807 </i>
    <i name="e_0_energy">    -58.25092546 </i>
   </energy>
  </scstep>
  <scstep>
   <time name="diag">    1.57    1.58</time>
   <time name="diis">    3.65    3.66</time>
   <time name="orth">    0.24    0.24</time>
   <time name="total">    5.50    5.52</time>
   <energy>
    <i name="alphaZ">    236.98541876 </i>
    <i name="ewald">  -6288.56376463 </i>
    <i name="hartreedc">  -1481.48731135 </i>
    <i name="XCdc">   -455.81599071 </i>
    <i name="pawpsdc">   8912.42179107 </i>
    <i name="pawaedc">  -8193.78291942 </i>
    <i name="eentropy">     -0.00277530 </i>
    <i name="bandstr">    518.84716419 </i>
    <i name="atom">   6693.14607468 </i>
    <i name="e_fr_energy">    -58.25231271 </i>
    <i name="e_wo_entrp">    -58.24953741 </i>
    <i name="e_0_energy">    -58.25092506 </i>
   </energy>
  </scstep>
  <structure>
   <crystal>
    <varray name="basis" >
     <v>       5.67331112       0.00000000       0.00000002 </v>
     <v>       0.00000000       4.25689715       0.00000000 </v>
     <v>       0.00000002       0.00000000       8.31364384 </v>
    </varray>
    <i name="volume">    200.78033419 </i>
    <varray name="rec_basis" >
     <v>       0.17626391       0.00000000      -0.00000000 </v>
     <v>       0.00000000       0.23491289       0.00000000 </v>
     <v>      -0.00000000       0.00000000       0.12028420 </v>
    </varray>
   </crystal>
   <varray name="positions" >
    <v>       0.82220000       0.25000000       0.39890000 </v>
    <v>       0.17770378       0.75000000       0.60087571 </v>
    <v>       0.67770378       0.75000000       0.89912429 </v>
    <v>       0.32229622       0.25000000       0.10087574 </v>
    <v>       0.84005695       0.25000000       0.07218438 </v>
    <v>       0.15994305       0.75000000       0.92781561 </v>
    <v>       0.65994306       0.75000000       0.57218439 </v>
    <v>       0.34005694       0.25000000       0.42781561 </v>
    <v>       0.93292313       0.25000000       0.73173113 </v>
    <v>       0.06707687       0.75000000       0.26826886 </v>
    <v>       0.56707688       0.75000000       0.23173114 </v>
    <v>       0.43292312       0.25000000       0.76826886 </v>
   </varray>
  </structure>
  <varray name="forces" >
   <v>      -0.00582578       0.00000000       0.06962053 </v>
   <v>       0.00392727       0.00000000      -0.05660691 </v>
   <v>       0.00528833       0.00000000       0.05561355 </v>
   <v>      -0.00530960       0.00000000      -0.05702588 </v>
   <v>       0.02985654       0.00000000      -0.04454078 </v>
   <v>      -0.02894163       0.00000000       0.03845409 </v>
   <v>      -0.02693511       0.00000000      -0.03981470 </v>
   <v>       0.02772539       0.00000000       0.03869478 </v>
   <v>      -0.00127461       0.00000000      -0.03267284 </v>
   <v>       0.00256972       0.00000000       0.02898777 </v>
   <v>      -0.00093293       0.00000000      -0.02971596 </v>
   <v>      -0.00014760       0.00000000       0.02900635 </v>
  </varray>
  <varray name="stress" >
   <v>      21.99977458       0.00000000      -0.05143354 </v>
   <v>       0.00000000      16.22090148       0.00000000 </v>
   <v>      -0.05143345       0.00000000      22.45644737 </v>
  </varray>
  <energy>
   <i name="e_fr_energy">    -58.25231271 </i>
   <i name="e_wo_entrp">    -58.25092506 </i>
   <i name="e_0_energy">     -0.00277530 </i>
  </energy>
  <time name="totalsc">  116.58  117.16</time>
 </calculation>
 <calculation>
  <scstep>
   <time name="dav">   11.93   11.97</time>
   <time name="total">   12.28   12.32</time>
   <energy>
    <i name="alphaZ">    233.25196143 </i>
    <i name="ewald">  -6255.42621706 </i>
    <i name="hartreedc">  -1473.60985606 </i>
    <i name="XCdc">   -456.76645039 </i>
    <i name="pawpsdc">   8912.29782378 </i>
    <i name="pawaedc">  -8193.66349562 </i>
    <i name="eentropy">     -0.00254040 </i>
    <i name="bandstr">    482.17218741 </i>
    <i name="atom">   6693.14607468 </i>
    <i name="e_fr_energy">    -58.60051224 </i>
    <i name="e_wo_entrp">    -58.59797184 </i>
    <i name="e_0_energy">    -58.59924204 </i>
   </energy>
  </scstep>
  <scstep>
   <time name="diag">    1.58    1.59</time>
   <time name="diis">    5.79    5.80</time>
   <time name="orth">    0.25    0.25</time>
   <time name="total">    7.96    7.99</time>
   <energy>
    <i name="e_fr_energy">    -58.41029620 </i>
    <i name="e_wo_entrp">    -58.40761060 </i>
    <i name="e_0_energy">    -58.40895340 </i>
   </energy>
  </scstep>
  <scstep>
   <time name="diag">    1.58    1.59</time>
   <time name="diis">    5.78    5.79</time>
   <time name="orth">    0.25    0.25</time>
   <time name="total">    7.95    7.98</time>
   <energy>
    <i name="e_fr_energy">    -58.28058148 </i>
    <i name="e_wo_entrp">    -58.27766727 </i>
    <i name="e_0_energy">    -58.27912438 </i>
   </energy>
  </scstep>
  <scstep>
   <time name="diag">    1.57    1.58</time>
   <time name="diis">    5.71    5.73</time>
   <time name="orth">    0.24    0.24</time>
   <time name="total">    7.87    7.90</time>
   <energy>
    <i name="e_fr_energy">    -58.27551397 </i>
    <i name="e_wo_entrp">    -58.27258382 </i>
    <i name="e_0_energy">    -58.27404890 </i>
   </energy>
  </scstep>
  <scstep>
   <time name="diag">    1.57    1.58</time>
   <time name="diis">    5.76    5.77</time>
   <time name="orth">    0.24    0.24</time>
   <time name="total">    7.92    7.95</time>
   <energy>
    <i name="e_fr_energy">    -58.27132795 </i>
    <i name="e_wo_entrp">    -58.26836095 </i>
    <i name="e_0_energy">    -58.26984445 </i>
   </energy>
  </scstep>
  <scstep>
   <time name="diag">    1.57    1.58</time>
   <time name="diis">    5.77    5.78</time>
   <time name="orth">    0.24    0.24</time>
   <time name="total">    7.94    7.97</time>
   <energy>
    <i name="e_fr_energy">    -58.27066398 </i>
    <i name="e_wo_entrp">    -58.26771011 </i>
    <i name="e_0_energy">    -58.26918705 </i>
   </energy>
  </scstep>
  <scstep>
   <time name="diag">    1.57    1.58</time>
   <time name="diis">    5.76    5.78</time>
   <time name="orth">    0.24    0.24</time>
   <time name="total">    7.92    7.95</time>
   <energy>
    <i name="e_fr_energy">    -58.27065325 </i>
    <i name="e_wo_entrp">    -58.26768921 </i>
    <i name="e_0_energy">    -58.26917123 </i>
   </energy>
  </scstep>
  <scstep>
   <time name="diag">    1.57    1.58</time>
   <time name="diis">    5.75    5.77</time>
   <time name="orth">    0.25    0.25</time>
   <time name="total">    7.92    7.94</time>
   <energy>
    <i name="e_fr_energy">    -58.27043039 </i>
    <i name="e_wo_entrp">    -58.26748276 </i>
    <i name="e_0_energy">    -58.26895658 </i>
   </energy>
  </scstep>
  <scstep>
   <time name="diag">    1.57    1.58</time>
   <time name="diis">    5.75    5.77</time>
   <time name="orth">    0.25    0.25</time>
   <time name="total">    7.91    7.95</time>
   <energy>
    <i name="e_fr_energy">    -58.27040609 </i>
    <i name="e_wo_entrp">    -58.26745720 </i>
    <i name="e_0_energy">    -58.26893164 </i>
   </energy>
  </scstep>
  <scstep>
   <time name="diag">    1.57    1.58</time>
   <time name="diis">    5.76    5.78</time>
   <time name="orth">    0.24    0.24</time>
   <time name="total">    7.93    7.95</time>
   <energy>
    <i name="e_fr_energy">    -58.27036602 </i>
    <i name="e_wo_entrp">    -58.26741041 </i>
    <i name="e_0_energy">    -58.26888821 </i>
   </energy>
  </scstep>
  <scstep>
   <time name="diag">    1.56    1.57</time>
   <time name="diis">    4.08    4.09</time>
   <time name="orth">    0.25    0.25</time>
   <time name="total">    5.92    5.95</time>
   <energy>
    <i name="alphaZ">    233.25196143 </i>
    <i name="ewald">  -6255.42621706 </i>
    <i name="hartreedc">  -1496.00214873 </i>
    <i name="XCdc">   -456.25106874 </i>
    <i name="pawpsdc">   8804.77550643 </i>
    <i name="pawaedc">  -8085.30698811 </i>
    <i name="eentropy">     -0.00295520 </i>
    <i name="bandstr">    503.54546946 </i>
    <i name="atom">   6693.14607468 </i>
    <i name="e_fr_energy">    -58.27036586 </i>
    <i name="e_wo_entrp">    -58.26741065 </i>
    <i name="e_0_energy">    -58.26888826 </i>
   </energy>
  </scstep>
  <structure>
   <crystal>
    <varray name="basis" >
     <v>       5.70368599       0.00000000       0.00000002 </v>
     <v>       0.00000000       4.27827293       0.00000000 </v>
     <v>       0.00000003       0.00000000       8.35975211 </v>
    </varray>
    <i name="volume">    203.99404697 </i>
    <varray name="rec_basis" >
     <v>       0.17532522       0.00000000      -0.00000000 </v>
     <v>       0.00000000       0.23373918       0.00000000 </v>
     <v>      -0.00000000       0.00000000       0.11962077 </v>
    </varray>
   </crystal>
   <varray name="positions" >
    <v>       0.82220000       0.25000000       0.39890000 </v>
    <v>       0.17765261       0.75000000       0.60075650 </v>
    <v>       0.67765261       0.75000000       0.89924350 </v>
    <v>       0.32234739       0.25000000       0.10075653 </v>
    <v>       0.84008724       0.25000000       0.07212292 </v>
    <v>       0.15991276       0.75000000       0.92787707 </v>
    <v>       0.65991277       0.75000000       0.57212293 </v>
    <v>       0.34008723       0.25000000       0.42787708 </v>
    <v>       0.93293542       0.25000000       0.73169452 </v>
    <v>       0.06706458       0.75000000       0.26830548 </v>
    <v>       0.56706460       0.75000000       0.23169453 </v>
    <v>       0.43293541       0.25000000       0.76830547 </v>
   </varray>
  </structure>
  <varray name="forces" >
   <v>      -0.01595184       0.00000000       0.07252792 </v>
   <v>       0.01009135       0.00000000      -0.04654899 </v>
   <v>       0.01203443       0.00000000       0.04362002 </v>
   <v>      -0.01146663       0.00000000      -0.04721319 </v>
   <v>       0.02982859       0.00000000      -0.02453881 </v>
   <v>      -0.02790775       0.00000000       0.01446734 </v>
   <v>      -0.02508098       0.00000000      -0.01789481 </v>
   <v>       0.02685639       0.00000000       0.01474472 </v>
   <v>       0.00399386       0.00000000      -0.05146282 </v>
   <v>      -0.00150424       0.00000000       0.04476168 </v>
   <v>      -0.00648726       0.00000000      -0.04729945 </v>
   <v>       0.00559408       0.00000000       0.04483639 </v>
  </varray>
  <varray name="stress" >
   <v>       0.69038838       0.00000000       0.02918445 </v>
   <v>       0.00000000      -5.87342649       0.00000000 </v>
   <v>       0.02918461       0.00000000      -0.14600870 </v>
  </varray>
  <energy>
   <i name="e_fr_energy">    -58.27036586 </i>
   <i name="e_wo_entrp">    -58.26888826 </i>
   <i name="e_0_energy">     -0.00295520 </i>
  </energy>
  <time name="totalsc">  101.57  101.93</time>
 </calculation>
 <calculation>
  <scstep>
   <time name="dav">   12.66   12.70</time>
   <time name="total">   13.01   13.05</time>
   <energy>
    <i name="alphaZ">    233.51626872 </i>
    <i name="ewald">  -6257.78378836 </i>
    <i name="hartreedc">  -1496.56797161 </i>
    <i name="XCdc">   -456.18229317 </i>
    <i name="pawpsdc">   8804.64928640 </i>
    <i name="pawaedc">  -8085.19628264 </i>
    <i name="eentropy">     -0.00293289 </i>
    <i name="bandstr">    506.14943591 </i>
    <i name="atom">   6693.14607468 </i>
    <i name="e_fr_energy">    -58.27220296 </i>
    <i name="e_wo_entrp">    -58.26927007 </i>
    <i name="e_0_energy">    -58.27073651 </i>
   </energy>
  </scstep>
  <scstep>
   <time name="diag">    1.57    1.59</time>
   <time name="diis">    5.75    5.77</time>
   <time name="orth">    0.24    0.24</time>
   <time name="total">    7.92    7.94</time>
   <energy>
    <i name="e_fr_energy">    -58.27122935 </i>
    <i name="e_wo_entrp">    -58.26829415 </i>
    <i name="e_0_energy">    -58.26976175 </i>
   </energy>
  </scstep>
  <scstep>
   <time name="diag">    1.58    1.60</time>
   <time name="diis">    5.77    5.78</time>
   <time name="orth">    0.24    0.24</time>
   <time name="total">    7.94    7.97</time>
   <energy>
    <i name="e_fr_energy">    -58.27056852 </i>
    <i name="e_wo_entrp">    -58.26762388 </i>
    <i name="e_0_energy">    -58.26909620 </i>
   </energy>
  </scstep>
  <scstep>
   <time name="diag">    1.58    1.60</time>
   <time name="diis">    5.71    5.72</time>
   <time name="orth">    0.24    0.24</time>
   <time name="total">    7.88    7.91</time>
   <energy>
    <i name="e_fr_energy">    -58.27054955 </i>
    <i name="e_wo_entrp">    -58.26760570 </i>
    <i name="e_0_energy">    -58.26907763 </i>
   </energy>
  </scstep>
  <scstep>
   <time name="diag">    1.58    1.60</time>
   <time name="diis">    5.75    5.76</time>
   <time name="orth">    0.25    0.25</time>
   <time name="total">    7.93    7.96</time>
   <energy>
    <i name="e_fr_energy">    -58.27053647 </i>
    <i name="e_wo_entrp">    -58.26759630 </i>
    <i name="e_0_energy">    -58.26906639 </i>
   </energy>
  </scstep>
  <scstep>
   <time name="diag">    1.58    1.59</time>
   <time name="diis">    5.74    5.75</time>
   <time name="orth">    0.24    0.24</time>
   <time name="total">    7.91    7.94</time>
   <energy>
    <i name="e_fr_energy">    -58.27053558 </i>
    <i name="e_wo_entrp">    -58.26759384 </i>
    <i name="e_0_energy">    -58.26906471 </i>
   </energy>
  </scstep>
  <scstep>
   <time name="diag">    1.57    1.58</time>
   <time name="diis">    5.77    5.78</time>
   <time name="orth">    0.24    0.24</time>
   <time name="total">    7.93    7.96</time>
   <energy>
    <i name="e_fr_energy">    -58.27053761 </i>
    <i name="e_wo_entrp">    -58.26759669 </i>
    <i name="e_0_energy">    -58.26906715 </i>
   </energy>
  </scstep>
  <scstep>
   <time name="diag">    1.57    1.58</time>
   <time name="diis">    5.34    5.36</time>
   <time name="orth">    0.24    0.24</time>
   <time name="total">    7.18    7.22</time>
   <energy>
    <i name="alphaZ">    233.51626872 </i>
    <i name="ewald">  -6257.78378836 </i>
    <i name="hartreedc">  -1494.92610988 </i>
    <i name="XCdc">   -456.22021662 </i>
    <i name="pawpsdc">   8811.94168175 </i>
    <i name="pawaedc">  -8092.56073457 </i>
    <i name="eentropy">     -0.00294171 </i>
    <i name="bandstr">    504.61922863 </i>
    <i name="atom">   6693.14607468 </i>
    <i name="e_fr_energy">    -58.27053736 </i>
    <i name="e_wo_entrp">    -58.26759566 </i>
    <i name="e_0_energy">    -58.26906651 </i>
   </energy>
  </scstep>
  <structure>
   <crystal>
    <varray name="basis" >
     <v>       5.70151435       0.00000000       0.00000002 </v>
     <v>       0.00000000       4.27674467       0.00000000 </v>
     <v>       0.00000003       0.00000000       8.35645562 </v>
    </varray>
    <i name="volume">    203.76315465 </i>
    <varray name="rec_basis" >
     <v>       0.17539200       0.00000000      -0.00000000 </v>
     <v>       0.00000000       0.23382270       0.00000000 </v>
     <v>      -0.00000000       0.00000000       0.11966796 </v>
    </varray>
   </crystal>
   <varray name="positions" >
    <v>       0.82220000       0.25000000       0.39890000 </v>
    <v>       0.17765625       0.75000000       0.60076498 </v>
    <v>       0.67765625       0.75000000       0.89923502 </v>
    <v>       0.32234375       0.25000000       0.10076501 </v>
    <v>       0.84008509       0.25000000       0.07212729 </v>
    <v>       0.15991491       0.75000000       0.92787270 </v>
    <v>       0.65991492       0.75000000       0.57212730 </v>
    <v>       0.34008508       0.25000000       0.42787271 </v>
    <v>       0.93293454       0.25000000       0.73169712 </v>
    <v>       0.06706545       0.75000000       0.26830288 </v>
    <v>       0.56706547       0.75000000       0.23169713 </v>
    <v>       0.43293453       0.25000000       0.76830287 </v>
   </varray>
  </structure>
  <varray name="forces" >
   <v>      -0.01337303       0.00000000       0.07016170 </v>
   <v>       0.00796454       0.00000000      -0.04374557 </v>
   <v>       0.00987008       0.00000000       0.04068794 </v>
   <v>      -0.00937833       0.00000000      -0.04439119 </v>
   <v>       0.02456330       0.00000000      -0.02634818 </v>
   <v>      -0.02275011       0.00000000       0.01628166 </v>
   <v>      -0.01997267       0.00000000      -0.01983351 </v>
   <v>       0.02164952       0.00000000       0.01655927 </v>
   <v>       0.00041947       0.00000000      -0.05010279 </v>
   <v>       0.00195179       0.00000000       0.04333655 </v>
   <v>      -0.00293659       0.00000000      -0.04601385 </v>
   <v>       0.00199204       0.00000000       0.04340798 </v>
  </varray>
  <varray name="stress" >
   <v>       2.38870609       0.00000000       0.01999275 </v>
   <v>       0.00000000      -4.49464788       0.00000000 </v>
   <v>       0.01999236       0.00000000       1.46956864 </v>
  </varray>
  <energy>
   <i name="e_fr_energy">    -58.27053736 </i>
   <i name="e_wo_entrp">    -58.26906651 </i>
   <i name="e_0_energy">     -0.00294171 </i>
  </energy>
  <time name="totalsc">   79.72   79.99</time>
 </calculation>
 <calculation>
  <scstep>
   <time name="dav">   12.60   12.64</time>
   <time name="total">   12.95   12.99</time>
   <energy>
    <i name="alphaZ">    233.51797707 </i>
    <i name="ewald">  -6257.88318417 </i>
    <i name="hartreedc">  -1494.83810930 </i>
    <i name="XCdc">   -456.22070347 </i>
    <i name="pawpsdc">   8811.87923396 </i>
    <i name="pawaedc">  -8092.49462086 </i>
    <i name="eentropy">     -0.00295127 </i>
    <i name="bandstr">    504.62465081 </i>
    <i name="atom">   6693.14607468 </i>
    <i name="e_fr_energy">    -58.27163256 </i>
    <i name="e_wo_entrp">    -58.26868129 </i>
    <i name="e_0_energy">    -58.27015692 </i>
   </energy>
  </scstep>
  <scstep>
   <time name="diag">    1.58    1.59</time>
   <time name="diis">    5.69    5.70</time>
   <time name="orth">    0.24    0.24</time>
   <time name="total">    7.85    7.88</time>
   <energy>
    <i name="e_fr_energy">    -58.27159297 </i>
    <i name="e_wo_entrp">    -58.26864691 </i>
    <i name="e_0_energy">    -58.27011994 </i>
   </energy>
  </scstep>
  <scstep>
   <time name="diag">    1.58    1.59</time>
   <time name="diis">    5.73    5.74</time>
   <time name="orth">    0.24    0.24</time>
   <time name="total">    7.90    7.92</time>
   <energy>
    <i name="e_fr_energy">    -58.27140564 </i>
    <i name="e_wo_entrp">    -58.26847395 </i>
    <i name="e_0_energy">    -58.26993980 </i>
   </energy>
  </scstep>
  <scstep>
   <time name="diag">    1.58    1.59</time>
   <time name="diis">    5.74    5.75</time>
   <time name="orth">    0.25    0.25</time>
   <time name="total">    7.92    7.95</time>
   <energy>
    <i name="e_fr_energy">    -58.27136025 </i>
    <i name="e_wo_entrp">    -58.26843738 </i>
    <i name="e_0_energy">    -58.26989881 </i>
   </energy>
  </scstep>
  <scstep>
   <time name="diag">    1.58    1.59</time>
   <time name="diis">    4.14    4.15</time>
   <time name="orth">    0.24    0.24</time>
   <time name="total">    5.99    6.02</time>
   <energy>
    <i name="alphaZ">    233.51797707 </i>
    <i name="ewald">  -6257.88318417 </i>
    <i name="hartreedc">  -1494.84395577 </i>
    <i name="XCdc">   -456.22065599 </i>
    <i name="pawpsdc">   8812.29098680 </i>
    <i name="pawaedc">  -8092.90373732 </i>
    <i name="eentropy">     -0.00292371 </i>
    <i name="bandstr">    504.62805875 </i>
    <i name="atom">   6693.14607468 </i>
    <i name="e_fr_energy">    -58.27135966 </i>
    <i name="e_wo_entrp">    -58.26843595 </i>
    <i name="e_0_energy">    -58.26989780 </i>
   </energy>
  </scstep>
  <structure>
   <crystal>
    <varray name="basis" >
     <v>       5.70400428       0.00000000       0.00001925 </v>
     <v>       0.00000000       4.27363751       0.00000000 </v>
     <v>       0.00002821       0.00000000       8.35881961 </v>
    </varray>
    <i name="volume">    203.76166398 </i>
    <varray name="rec_basis" >
     <v>       0.17531544       0.00000000      -0.00000059 </v>
     <v>       0.00000000       0.23399270       0.00000000 </v>
     <v>      -0.00000040       0.00000000       0.11963412 </v>
    </varray>
   </crystal>
   <varray name="positions" >
    <v>       0.82220000       0.25000000       0.39890000 </v>
    <v>       0.17767816       0.75000000       0.60068092 </v>
    <v>       0.67768348       0.75000000       0.89931326 </v>
    <v>       0.32231789       0.25000000       0.10067971 </v>
    <v>       0.84015385       0.25000000       0.07207672 </v>
    <v>       0.15985122       0.75000000       0.92790409 </v>
    <v>       0.65985898       0.75000000       0.57208914 </v>
    <v>       0.34014570       0.25000000       0.42790463 </v>
    <v>       0.93293579       0.25000000       0.73160146 </v>
    <v>       0.06707083       0.75000000       0.26838565 </v>
    <v>       0.56705720       0.75000000       0.23160927 </v>
    <v>       0.43294017       0.25000000       0.76838577 </v>
   </varray>
  </structure>
  <varray name="forces" >
   <v>      -0.01676548       0.00000000       0.06925032 </v>
   <v>       0.01056571       0.00000000      -0.03619481 </v>
   <v>       0.01233707       0.00000000       0.03244309 </v>
   <v>      -0.01205737       0.00000000      -0.03721421 </v>
   <v>       0.02439965       0.00000000      -0.02207942 </v>
   <v>      -0.02265994       0.00000000       0.01001513 </v>
   <v>      -0.01937870       0.00000000      -0.01488629 </v>
   <v>       0.02213041       0.00000000       0.01046122 </v>
   <v>       0.00378610       0.00000000      -0.04741959 </v>
   <v>      -0.00121010       0.00000000       0.03874299 </v>
   <v>      -0.00680343       0.00000000      -0.04218789 </v>
   <v>       0.00565609       0.00000000       0.03906945 </v>
  </varray>
  <varray name="stress" >
   <v>       1.69347143       0.00000000       0.02615554 </v>
   <v>       0.00000000      -3.98803679       0.00000000 </v>
   <v>       0.02615547       0.00000000       1.15454607 </v>
  </varray>
  <energy>
   <i name="e_fr_energy">    -58.27135966 </i>
   <i name="e_wo_entrp">    -58.26989780 </i>
   <i name="e_0_energy">     -0.00292371 </i>
  </energy>
  <time name="totalsc">   54.66   54.85</time>
 </calculation>
 <calculation>
  <scstep>
   <time name="dav">   12.67   12.71</time>
   <time name="total">   13.02   13.06</time>
   <energy>
    <i name="alphaZ">    233.52422246 </i>
    <i name="ewald">  -6258.18571857 </i>
    <i name="hartreedc">  -1494.57299526 </i>
    <i name="XCdc">   -456.22054019 </i>
    <i name="pawpsdc">   8812.28142547 </i>
    <i name="pawaedc">  -8092.89408567 </i>
    <i name="eentropy">     -0.00296317 </i>
    <i name="bandstr">    504.64891624 </i>
    <i name="atom">   6693.14607468 </i>
    <i name="e_fr_energy">    -58.27566401 </i>
    <i name="e_wo_entrp">    -58.27270084 </i>
    <i name="e_0_energy">    -58.27418242 </i>
   </energy>
  </scstep>
  <scstep>
   <time name="diag">    1.57    1.59</time>
   <time name="diis">    5.69    5.71</time>
   <time name="orth">    0.24    0.24</time>
   <time name="total">    7.86    7.89</time>
   <energy>
    <i name="e_fr_energy">    -58.27529521 </i>
    <i name="e_wo_entrp">    -58.27234797 </i>
    <i name="e_0_energy">    -58.27382159 </i>
   </energy>
  </scstep>
  <scstep>
   <time name="diag">    1.57    1.59</time>
   <time name="diis">    5.72    5.73</time>
   <time name="orth">    0.24    0.24</time>
   <time name="total">    7.88    7.91</time>
   <energy>
    <i name="e_fr_energy">    -58.27356121 </i>
    <i name="e_wo_entrp">    -58.27066191 </i>
    <i name="e_0_energy">    -58.27211156 </i>
   </energy>
  </scstep>
  <scstep>
   <time name="diag">    1.57    1.58</time>
   <time name="diis">    5.74    5.75</time>
   <time name="orth">    0.24    0.24</time>
   <time name="total">    7.91    7.94</time>
   <energy>
    <i name="e_fr_energy">    -58.27315579 </i>
    <i name="e_wo_entrp">    -58.27028943 </i>
    <i name="e_0_energy">    -58.27172261 </i>
   </energy>
  </scstep>
  <scstep>
   <time name="diag">    1.58    1.59</time>
   <time name="diis">    5.66    5.68</time>
   <time name="orth">    0.24    0.24</time>
   <time name="total">    7.83    7.87</time>
   <energy>
    <i name="e_fr_energy">    -58.27315053 </i>
    <i name="e_wo_entrp">    -58.27028353 </i>
    <i name="e_0_energy">    -58.27171703 </i>
   </energy>
  </scstep>
  <scstep>
   <time name="diag">    1.58    1.59</time>
   <time name="diis">    5.73    5.75</time>
   <time name="orth">    0.25    0.25</time>
   <time name="total">    7.91    7.95</time>
   <energy>
    <i name="e_fr_energy">    -58.27314571 </i>
    <i name="e_wo_entrp">    -58.27027860 </i>
    <i name="e_0_energy">    -58.27171216 </i>
   </energy>
  </scstep>
  <scstep>
   <time name="diag">    1.57    1.59</time>
   <time name="diis">    4.83    4.84</time>
   <time name="orth">    0.25    0.25</time>
   <time name="total">    7.00    7.02</time>
   <energy>
    <i name="e_fr_energy">    -58.27314413 </i>
    <i name="e_wo_entrp">    -58.27027992 </i>
    <i name="e_0_energy">    -58.27171202 </i>
   </energy>
  </scstep>
  <scstep>
   <time name="diag">    1.56    1.58</time>
   <time name="diis">    3.46    3.47</time>
   <time name="orth">    0.24    0.24</time>
   <time name="total">    5.30    5.32</time>
   <energy>
    <i name="alphaZ">    233.52422246 </i>
    <i name="ewald">  -6258.18571857 </i>
    <i name="hartreedc">  -1494.51397618 </i>
    <i name="XCdc">   -456.22243870 </i>
    <i name="pawpsdc">   8813.21977650 </i>
    <i name="pawaedc">  -8093.83358464 </i>
    <i name="eentropy">     -0.00286502 </i>
    <i name="bandstr">    504.59536560 </i>
    <i name="atom">   6693.14607468 </i>
    <i name="e_fr_energy">    -58.27314387 </i>
    <i name="e_wo_entrp">    -58.27027885 </i>
    <i name="e_0_energy">    -58.27171136 </i>
   </energy>
  </scstep>
  <structure>
   <crystal>
    <varray name="basis" >
     <v>       5.71147409       0.00000000       0.00007694 </v>
     <v>       0.00000000       4.26431602       0.00000000 </v>
     <v>       0.00011276       0.00000000       8.36591158 </v>
    </varray>
    <i name="volume">    203.75621456 </i>
    <varray name="rec_basis" >
     <v>       0.17508615       0.00000000      -0.00000236 </v>
     <v>       0.00000000       0.23450420       0.00000000 </v>
     <v>      -0.00000161       0.00000000       0.11953270 </v>
    </varray>
   </crystal>
   <varray name="positions" >
    <v>       0.82220000       0.25000000       0.39890000 </v>
    <v>       0.17774388       0.75000000       0.60042880 </v>
    <v>       0.67776515       0.75000000       0.89954791 </v>
    <v>       0.32224034       0.25000000       0.10042391 </v>
    <v>       0.84036004       0.25000000       0.07192506 </v>
    <v>       0.15966021       0.75000000       0.92799825 </v>
    <v>       0.65969122       0.75000000       0.57197470 </v>
    <v>       0.34032750       0.25000000       0.42800037 </v>
    <v>       0.93293953       0.25000000       0.73131457 </v>
    <v>       0.06708693       0.75000000       0.26863389 </v>
    <v>       0.56703239       0.75000000       0.23134573 </v>
    <v>       0.43295707       0.25000000       0.76863442 </v>
   </varray>
  </structure>
  <varray name="forces" >
   <v>      -0.01439222       0.00000000       0.05034570 </v>
   <v>       0.01187016       0.00000000      -0.01004607 </v>
   <v>       0.01327264       0.00000000       0.00574781 </v>
   <v>      -0.01393476       0.00000000      -0.01220163 </v>
   <v>       0.03847149       0.00000000      -0.00399761 </v>
   <v>      -0.03621555       0.00000000      -0.00926605 </v>
   <v>      -0.03321645       0.00000000       0.00318512 </v>
   <v>       0.03699408       0.00000000      -0.00834159 </v>
   <v>      -0.00089744       0.00000000      -0.03981050 </v>
   <v>       0.00014375       0.00000000       0.02751664 </v>
   <v>      -0.00401008       0.00000000      -0.03122532 </v>
   <v>       0.00191437       0.00000000       0.02809350 </v>
  </varray>
  <varray name="stress" >
   <v>       0.95553147       0.00000000       0.01624878 </v>
   <v>       0.00000000      -1.61455016       0.00000000 </v>
   <v>       0.01624884       0.00000000       1.44918516 </v>
  </varray>
  <energy>
   <i name="e_fr_energy">    -58.27314387 </i>
   <i name="e_wo_entrp">    -58.27171136 </i>
   <i name="e_0_energy">     -0.00286502 </i>
  </energy>
  <time name="totalsc">   76.74   77.02</time>
 </calculation>
 <calculation>
  <scstep>
   <time name="dav">   12.63   12.67</time>
   <time name="total">   12.98   13.02</time>
   <energy>
    <i name="alphaZ">    233.54176708 </i>
    <i name="ewald">  -6258.81030740 </i>
    <i name="hartreedc">  -1493.99944713 </i>
    <i name="XCdc">   -456.22021522 </i>
    <i name="pawpsdc">   8813.19102235 </i>
    <i name="pawaedc">  -8093.80477539 </i>
    <i name="eentropy">     -0.00297055 </i>
    <i name="bandstr">    504.67519317 </i>
    <i name="atom">   6693.14607468 </i>
    <i name="e_fr_energy">    -58.28365841 </i>
    <i name="e_wo_entrp">    -58.28068786 </i>
    <i name="e_0_energy">    -58.28217313 </i>
   </energy>
  </scstep>
  <scstep>
   <time name="diag">    1.57    1.59</time>
   <time name="diis">    5.68    5.70</time>
   <time name="orth">    0.24    0.24</time>
   <time name="total">    7.84    7.87</time>
   <energy>
    <i name="e_fr_energy">    -58.28224210 </i>
    <i name="e_wo_entrp">    -58.27931528 </i>
    <i name="e_0_energy">    -58.28077869 </i>
   </energy>
  </scstep>
  <scstep>
   <time name="diag">    1.57    1.58</time>
   <time name="diis">    5.71    5.72</time>
   <time name="orth">    0.24    0.24</time>
   <time name="total">    7.86    7.89</time>
   <energy>
    <i name="e_fr_energy">    -58.27546808 </i>
    <i name="e_wo_entrp">    -58.27269638 </i>
    <i name="e_0_energy">    -58.27408223 </i>
   </energy>
  </scstep>
  <scstep>
   <time name="diag">    1.57    1.58</time>
   <time name="diis">    5.75    5.77</time>
   <time name="orth">    0.24    0.24</time>
   <time name="total">    7.91    7.94</time>
   <energy>
    <i name="e_fr_energy">    -58.27380376 </i>
    <i name="e_wo_entrp">    -58.27115737 </i>
    <i name="e_0_energy">    -58.27248057 </i>
   </energy>
  </scstep>
  <scstep>
   <time name="diag">    1.57    1.59</time>
   <time name="diis">    5.69    5.71</time>
   <time name="orth">    0.24    0.24</time>
   <time name="total">    7.86    7.89</time>
   <energy>
    <i name="e_fr_energy">    -58.27378306 </i>
    <i name="e_wo_entrp">    -58.27113967 </i>
    <i name="e_0_energy">    -58.27246137 </i>
   </energy>
  </scstep>
  <scstep>
   <time name="diag">    1.57    1.59</time>
   <time name="diis">    5.72    5.74</time>
   <time name="orth">    0.25    0.25</time>
   <time name="total">    7.89    7.93</time>
   <energy>
    <i name="e_fr_energy">    -58.27376290 </i>
    <i name="e_wo_entrp">    -58.27112057 </i>
    <i name="e_0_energy">    -58.27244174 </i>
   </energy>
  </scstep>
  <scstep>
   <time name="diag">    1.57    1.58</time>
   <time name="diis">    5.69    5.71</time>
   <time name="orth">    0.24    0.25</time>
   <time name="total">    7.86    7.89</time>
   <energy>
    <i name="e_fr_energy">    -58.27375583 </i>
    <i name="e_wo_entrp">    -58.27112641 </i>
    <i name="e_0_energy">    -58.27244112 </i>
   </energy>
  </scstep>
  <scstep>
   <time name="diag">    1.56    1.58</time>
   <time name="diis">    4.82    4.84</time>
   <time name="orth">    0.24    0.24</time>
   <time name="total">    6.98    7.00</time>
   <energy>
    <i name="e_fr_energy">    -58.27375481 </i>
    <i name="e_wo_entrp">    -58.27112308 </i>
    <i name="e_0_energy">    -58.27243895 </i>
   </energy>
  </scstep>
  <scstep>
   <time name="diag">    1.56    1.57</time>
   <time name="diis">    3.52    3.53</time>
   <time name="orth">    0.24    0.24</time>
   <time name="total">    5.35    5.37</time>
   <energy>
    <i name="alphaZ">    233.54176708 </i>
    <i name="ewald">  -6258.81030740 </i>
    <i name="hartreedc">  -1493.96089176 </i>
    <i name="XCdc">   -456.22250075 </i>
    <i name="pawpsdc">   8815.54857483 </i>
    <i name="pawaedc">  -8096.15439929 </i>
    <i name="eentropy">     -0.00263353 </i>
    <i name="bandstr">    504.64056116 </i>
    <i name="atom">   6693.14607468 </i>
    <i name="e_fr_energy">    -58.27375498 </i>
    <i name="e_wo_entrp">    -58.27112145 </i>
    <i name="e_0_energy">    -58.27243822 </i>
   </energy>
  </scstep>
  <structure>
   <crystal>
    <varray name="basis" >
     <v>       5.72641370       0.00000000       0.00019231 </v>
     <v>       0.00000000       4.24567305       0.00000000 </v>
     <v>       0.00028185       0.00000000       8.38009553 </v>
    </varray>
    <i name="volume">    203.74090755 </i>
    <varray name="rec_basis" >
     <v>       0.17462937       0.00000000      -0.00000587 </v>
     <v>       0.00000000       0.23553392       0.00000000 </v>
     <v>      -0.00000401       0.00000000       0.11933038 </v>
    </varray>
   </crystal>
   <varray name="positions" >
    <v>       0.82220000       0.25000000       0.39890000 </v>
    <v>       0.17787516       0.75000000       0.59992500 </v>
    <v>       0.67792827       0.75000000       0.90001680 </v>
    <v>       0.32208544       0.25000000       0.09991274 </v>
    <v>       0.84077188       0.25000000       0.07162200 </v>
    <v>       0.15927868       0.75000000       0.92818640 </v>
    <v>       0.65935615       0.75000000       0.57174601 </v>
    <v>       0.34069061       0.25000000       0.42819168 </v>
    <v>       0.93294702       0.25000000       0.73074128 </v>
    <v>       0.06711910       0.75000000       0.26912994 </v>
    <v>       0.56698284       0.75000000       0.23081911 </v>
    <v>       0.43299083       0.25000000       0.76913129 </v>
   </varray>
  </structure>
  <varray name="forces" >
   <v>      -0.03165942       0.00000000       0.01810928 </v>
   <v>       0.01748126       0.00000000       0.05059045 </v>
   <v>       0.01424873       0.00000000      -0.05417875 </v>
   <v>      -0.01843661       0.00000000       0.04645107 </v>
   <v>       0.05625832       0.00000000       0.02459662 </v>
   <v>      -0.05188601       0.00000000      -0.04616393 </v>
   <v>      -0.04702588       0.00000000       0.03321469 </v>
   <v>       0.05750918       0.00000000      -0.04393898 </v>
   <v>       0.00014154       0.00000000      -0.02167501 </v>
   <v>       0.00364001       0.00000000      -0.00010926 </v>
   <v>      -0.00654709       0.00000000      -0.00684997 </v>
   <v>       0.00627596       0.00000000      -0.00004621 </v>
  </varray>
  <varray name="stress" >
   <v>      -0.90665660       0.00000000       0.01457597 </v>
   <v>       0.00000000       1.20169672       0.00000000 </v>
   <v>       0.01457593       0.00000000       1.22474408 </v>
  </varray>
  <energy>
   <i name="e_fr_energy">    -58.27375498 </i>
   <i name="e_wo_entrp">    -58.27243822 </i>
   <i name="e_0_energy">     -0.00263353 </i>
  </energy>
  <time name="totalsc">   84.56   84.88</time>
 </calculation>
 <calculation>
  <scstep>
   <time name="dav">   12.63   12.67</time>
   <time name="total">   12.98   13.02</time>
   <energy>
    <i name="alphaZ">    233.53624866 </i>
    <i name="ewald">  -6258.63537787 </i>
    <i name="hartreedc">  -1494.10444427 </i>
    <i name="XCdc">   -456.22264346 </i>
    <i name="pawpsdc">   8815.52546318 </i>
    <i name="pawaedc">  -8096.13099519 </i>
    <i name="eentropy">     -0.00266698 </i>
    <i name="bandstr">    504.61363991 </i>
    <i name="atom">   6693.14607468 </i>
    <i name="e_fr_energy">    -58.27470134 </i>
    <i name="e_wo_entrp">    -58.27203436 </i>
    <i name="e_0_energy">    -58.27336785 </i>
   </energy>
  </scstep>
  <scstep>
   <time name="diag">    1.57    1.59</time>
   <time name="diis">    5.69    5.71</time>
   <time name="orth">    0.24    0.24</time>
   <time name="total">    7.86    7.89</time>
   <energy>
    <i name="e_fr_energy">    -58.27459092 </i>
    <i name="e_wo_entrp">    -58.27191248 </i>
    <i name="e_0_energy">    -58.27325170 </i>
   </energy>
  </scstep>
  <scstep>
   <time name="diag">    1.57    1.58</time>
   <time name="diis">    5.71    5.73</time>
   <time name="orth">    0.24    0.24</time>
   <time name="total">    7.88    7.91</time>
   <energy>
    <i name="e_fr_energy">    -58.27406610 </i>
    <i name="e_wo_entrp">    -58.27134333 </i>
    <i name="e_0_energy">    -58.27270472 </i>
   </energy>
  </scstep>
  <scstep>
   <time name="diag">    1.57    1.58</time>
   <time name="diis">    5.71    5.73</time>
   <time name="orth">    0.24    0.24</time>
   <time name="total">    7.87    7.90</time>
   <energy>
    <i name="e_fr_energy">    -58.27394003 </i>
    <i name="e_wo_entrp">    -58.27118528 </i>
    <i name="e_0_energy">    -58.27256266 </i>
   </energy>
  </scstep>
  <scstep>
   <time name="diag">    1.57    1.59</time>
   <time name="diis">    5.09    5.10</time>
   <time name="orth">    0.24    0.24</time>
   <time name="total">    7.26    7.28</time>
   <energy>
    <i name="e_fr_energy">    -58.27393827 </i>
    <i name="e_wo_entrp">    -58.27118287 </i>
    <i name="e_0_energy">    -58.27256057 </i>
   </energy>
  </scstep>
  <scstep>
   <time name="diag">    1.56    1.58</time>
   <time name="diis">    5.48    5.50</time>
   <time name="orth">    0.24    0.24</time>
   <time name="total">    7.63    7.66</time>
   <energy>
    <i name="e_fr_energy">    -58.27393648 </i>
    <i name="e_wo_entrp">    -58.27118049 </i>
    <i name="e_0_energy">    -58.27255848 </i>
   </energy>
  </scstep>
  <scstep>
   <time name="diag">    1.57    1.58</time>
   <time name="diis">    3.42    3.43</time>
   <time name="orth">    0.24    0.24</time>
   <time name="total">    5.26    5.28</time>
   <energy>
    <i name="alphaZ">    233.53624866 </i>
    <i name="ewald">  -6258.63537787 </i>
[...]
       <r>    8.3067    1.0000 </r>
       <r>    9.2112    0.0000 </r>
       <r>    9.2121    0.0000 </r>
       <r>   11.3558    0.0000 </r>
       <r>   11.3564    0.0000 </r>
       <r>   12.0213    0.0000 </r>
       <r>   12.0215    0.0000 </r>
       <r>   12.4095    0.0000 </r>
       <r>   12.4107    0.0000 </r>
       <r>   13.9034    0.0000 </r>
       <r>   13.9066    0.0000 </r>
       <r>   14.5146    0.0000 </r>
       <r>   14.5168    0.0000 </r>
      </set>
      <set comment="kpoint 70">
       <r>    2.1907    1.0000 </r>
       <r>    2.1917    1.0000 </r>
       <r>    2.1926    1.0000 </r>
       <r>    2.1930    1.0000 </r>
       <r>    3.6245    1.0000 </r>
       <r>    3.6249    1.0000 </r>
       <r>    3.6253    1.0000 </r>
       <r>    3.6254    1.0000 </r>
       <r>    4.7666    1.0000 </r>
       <r>    4.7679    1.0000 </r>
       <r>    4.7680    1.0000 </r>
       <r>    4.7681    1.0000 </r>
       <r>    4.9917    1.0000 </r>
       <r>    4.9920    1.0000 </r>
       <r>    4.9920    1.0000 </r>
       <r>    4.9932    1.0000 </r>
       <r>    5.2564    1.0000 </r>
       <r>    5.2567    1.0000 </r>
       <r>    5.2576    1.0000 </r>
       <r>    5.2580    1.0000 </r>
       <r>    5.4873    1.0000 </r>
       <r>    5.4889    1.0000 </r>
       <r>    5.4897    1.0000 </r>
       <r>    5.4904    1.0000 </r>
       <r>    5.7851    1.0000 </r>
       <r>    5.7862    1.0000 </r>
       <r>    5.7868    1.0000 </r>
       <r>    5.7876    1.0000 </r>
       <r>    6.2849    1.0000 </r>
       <r>    6.2856    1.0000 </r>
       <r>    6.2865    1.0000 </r>
       <r>    6.2865    1.0000 </r>
       <r>    6.4999    1.0000 </r>
       <r>    6.5017    1.0000 </r>
       <r>    6.5030    1.0000 </r>
       <r>    6.5031    1.0000 </r>
       <r>    6.8031    1.0000 </r>
       <r>    6.8040    1.0000 </r>
       <r>    6.8048    1.0000 </r>
       <r>    6.8057    1.0000 </r>
       <r>    6.9706    1.0000 </r>
       <r>    6.9714    1.0000 </r>
       <r>    6.9722    1.0000 </r>
       <r>    6.9736    1.0000 </r>
       <r>    8.1903    1.0000 </r>
       <r>    8.1903    1.0000 </r>
       <r>    8.1922    1.0000 </r>
       <r>    8.1931    1.0000 </r>
       <r>   10.2826    0.0000 </r>
       <r>   10.2834    0.0000 </r>
       <r>   10.2857    0.0000 </r>
       <r>   10.2867    0.0000 </r>
       <r>   12.0680    0.0000 </r>
       <r>   12.0684    0.0000 </r>
       <r>   12.0707    0.0000 </r>
       <r>   12.0714    0.0000 </r>
       <r>   15.6702    0.0000 </r>
       <r>   15.6730    0.0000 </r>
       <r>   15.6745    0.0000 </r>
       <r>   15.6753    0.0000 </r>
      </set>
     </set>
    </set>
   </array>
  </eigenvalues>
  <separator name="orbital magnetization" >
   <v name="MAGDIPOLOUT">      0.00000000      0.00000000      0.00000000</v>
  </separator>
  <dos>
   <i name="efermi">      8.42062155 </i>
   <total>
    <array>
     <dimension dim="1">gridpoints</dimension>
     <dimension dim="2">spin</dimension>
     <field>energy</field>
     <field>total</field>
     <field>integrated</field>
     <set>
      <set comment="spin 1">
       <r>    -1.4075     0.0000     0.0000 </r>
       <r>    -1.3454     0.0000     0.0000 </r>
       <r>    -1.2832     0.0000     0.0000 </r>
       <r>    -1.2210     0.0000     0.0000 </r>
       <r>    -1.1589     0.0000     0.0000 </r>
       <r>    -1.0967     0.0000     0.0000 </r>
       <r>    -1.0345     0.0000     0.0000 </r>
       <r>    -0.9724     0.0000     0.0000 </r>
       <r>    -0.9102     0.0000     0.0000 </r>
       <r>    -0.8480     0.0000     0.0000 </r>
       <r>    -0.7859     0.0000     0.0000 </r>
       <r>    -0.7237     0.0000     0.0000 </r>
       <r>    -0.6615     0.0000     0.0000 </r>
       <r>    -0.5994     0.0052     0.0003 </r>
       <r>    -0.5372     0.1383     0.0089 </r>
       <r>    -0.4750     0.0268     0.0106 </r>
       <r>    -0.4128     0.5552     0.0451 </r>
       <r>    -0.3507     0.4465     0.0729 </r>
       <r>    -0.2885     0.4916     0.1034 </r>
       <r>    -0.2263     1.4934     0.1963 </r>
       <r>    -0.1642     0.1270     0.2042 </r>
       <r>    -0.1020     1.1488     0.2756 </r>
       <r>    -0.0398     0.1232     0.2833 </r>
       <r>     0.0223     0.7604     0.3305 </r>
       <r>     0.0845     0.2477     0.3459 </r>
       <r>     0.1467     2.5134     0.5022 </r>
       <r>     0.2088     1.4795     0.5942 </r>
       <r>     0.2710     1.9522     0.7155 </r>
       <r>     0.3332     2.0515     0.8431 </r>
       <r>     0.3953     0.0112     0.8437 </r>
       <r>     0.4575     0.0033     0.8440 </r>
       <r>     0.5197     0.8145     0.8946 </r>
       <r>     0.5819     1.2072     0.9696 </r>
       <r>     0.6440     2.0527     1.0973 </r>
       <r>     0.7062     3.1218     1.2913 </r>
       <r>     0.7684     1.9645     1.4135 </r>
       <r>     0.8305     2.2743     1.5549 </r>
       <r>     0.8927     2.3828     1.7030 </r>
       <r>     0.9549     1.6054     1.8028 </r>
       <r>     1.0170     2.0506     1.9303 </r>
       <r>     1.0792     1.1305     2.0006 </r>
       <r>     1.1414     2.8857     2.1800 </r>
       <r>     1.2035     2.9522     2.3635 </r>
       <r>     1.2657     3.0883     2.5555 </r>
       <r>     1.3279     1.6997     2.6612 </r>
       <r>     1.3900     1.2654     2.7398 </r>
       <r>     1.4522     1.5301     2.8349 </r>
       <r>     1.5144     1.1400     2.9058 </r>
       <r>     1.5765     3.6905     3.1353 </r>
       <r>     1.6387     3.5862     3.3582 </r>
       <r>     1.7009     3.5478     3.5788 </r>
       <r>     1.7631     1.6405     3.6808 </r>
       <r>     1.8252     3.2190     3.8809 </r>
       <r>     1.8874     2.9859     4.0665 </r>
       <r>     1.9496     3.6608     4.2941 </r>
       <r>     2.0117     4.7766     4.5910 </r>
       <r>     2.0739     3.8390     4.8297 </r>
       <r>     2.1361     5.7588     5.1877 </r>
       <r>     2.1982     9.7142     5.7916 </r>
       <r>     2.2604     8.9927     6.3507 </r>
       <r>     2.3226     8.0162     6.8491 </r>
       <r>     2.3847     5.4252     7.1863 </r>
       <r>     2.4469     4.3111     7.4544 </r>
       <r>     2.5091     3.5990     7.6781 </r>
       <r>     2.5712     3.2115     7.8778 </r>
       <r>     2.6334     0.4620     7.9065 </r>
       <r>     2.6956     0.5128     7.9384 </r>
       <r>     2.7577     0.5417     7.9720 </r>
       <r>     2.8199     0.3325     7.9927 </r>
       <r>     2.8821     0.1163     7.9999 </r>
       <r>     2.9443     0.0009     8.0000 </r>
       <r>     3.0064     0.0000     8.0000 </r>
       <r>     3.0686     0.0000     8.0000 </r>
       <r>     3.1308     0.0000     8.0000 </r>
       <r>     3.1929     0.0003     8.0000 </r>
       <r>     3.2551     0.1465     8.0091 </r>
       <r>     3.3173     0.2437     8.0243 </r>
       <r>     3.3794     1.0647     8.0905 </r>
       <r>     3.4416     1.7480     8.1991 </r>
       <r>     3.5038     1.8035     8.3113 </r>
       <r>     3.5659     5.1167     8.6294 </r>
       <r>     3.6281     6.1606     9.0124 </r>
       <r>     3.6903    12.1665     9.7687 </r>
       <r>     3.7524    10.1145    10.3975 </r>
       <r>     3.8146     8.4859    10.9251 </r>
       <r>     3.8768     6.0776    11.3029 </r>
       <r>     3.9390     8.6563    11.8411 </r>
       <r>     4.0011     9.9004    12.4566 </r>
       <r>     4.0633     8.3998    12.9788 </r>
       <r>     4.1255     7.0450    13.4167 </r>
       <r>     4.1876    11.0093    14.1012 </r>
       <r>     4.2498    11.8285    14.8365 </r>
       <r>     4.3120    12.5517    15.6169 </r>
       <r>     4.3741     9.4319    16.2032 </r>
       <r>     4.4363    15.5882    17.1723 </r>
       <r>     4.4985    17.4851    18.2593 </r>
       <r>     4.5606    20.6099    19.5406 </r>
       <r>     4.6228    20.3095    20.8032 </r>
       <r>     4.6850    17.5605    21.8950 </r>
       <r>     4.7471    17.7818    23.0004 </r>
       <r>     4.8093    25.3930    24.5791 </r>
       <r>     4.8715    22.7804    25.9953 </r>
       <r>     4.9336    21.2521    27.3165 </r>
       <r>     4.9958    19.1999    28.5101 </r>
       <r>     5.0580    29.9957    30.3749 </r>
       <r>     5.1202    30.9577    32.2995 </r>
       <r>     5.1823    31.3161    34.2464 </r>
       <r>     5.2445    31.3436    36.1950 </r>
       <r>     5.3067    30.4278    38.0866 </r>
       <r>     5.3688    23.1910    39.5284 </r>
       <r>     5.4310    23.9718    41.0187 </r>
       <r>     5.4932    23.0426    42.4512 </r>
       <r>     5.5553    20.8062    43.7447 </r>
       <r>     5.6175    21.7606    45.0975 </r>
       <r>     5.6797    22.4661    46.4942 </r>
       <r>     5.7418    19.7990    47.7251 </r>
       <r>     5.8040    19.6562    48.9471 </r>
       <r>     5.8662    17.0634    50.0079 </r>
       <r>     5.9283    18.7440    51.1732 </r>
       <r>     5.9905    22.3354    52.5617 </r>
       <r>     6.0527    17.1386    53.6272 </r>
       <r>     6.1148    21.2379    54.9475 </r>
       <r>     6.1770    24.4485    56.4675 </r>
       <r>     6.2392    20.1321    57.7190 </r>
       <r>     6.3014    21.1845    59.0361 </r>
       <r>     6.3635    27.3246    60.7348 </r>
       <r>     6.4257    29.0247    62.5392 </r>
       <r>     6.4879    26.2767    64.1728 </r>
       <r>     6.5500    27.7267    65.8965 </r>
       <r>     6.6122    27.1810    67.5863 </r>
       <r>     6.6744    22.0225    68.9554 </r>
       <r>     6.7365    24.2198    70.4611 </r>
       <r>     6.7987    19.6626    71.6835 </r>
       <r>     6.8609    26.3038    73.3188 </r>
       <r>     6.9230    28.6454    75.0997 </r>
       <r>     6.9852    36.3850    77.3617 </r>
       <r>     7.0474    25.8175    78.9667 </r>
       <r>     7.1095    34.5240    81.1130 </r>
       <r>     7.1717    22.0039    82.4810 </r>
       <r>     7.2339    13.1768    83.3001 </r>
       <r>     7.2961     9.7342    83.9053 </r>
       <r>     7.3582    11.6376    84.6288 </r>
       <r>     7.4204    12.4230    85.4011 </r>
       <r>     7.4826    10.5112    86.0546 </r>
       <r>     7.5447    14.1980    86.9372 </r>
       <r>     7.6069     9.8432    87.5492 </r>
       <r>     7.6691    14.0806    88.4245 </r>
       <r>     7.7312     6.4408    88.8250 </r>
       <r>     7.7934     2.8438    89.0018 </r>
       <r>     7.8556     3.9694    89.2485 </r>
       <r>     7.9177     1.8327    89.3625 </r>
       <r>     7.9799     1.7674    89.4723 </r>
       <r>     8.0421     4.0650    89.7251 </r>
       <r>     8.1042     5.1339    90.0442 </r>
       <r>     8.1664     5.9037    90.4112 </r>
       <r>     8.2286     6.7160    90.8288 </r>
       <r>     8.2907     5.4310    91.1664 </r>
       <r>     8.3529     6.5765    91.5753 </r>
       <r>     8.4151     6.3579    91.9705 </r>
       <r>     8.4773     4.3179    92.2390 </r>
       <r>     8.5394     5.5138    92.5817 </r>
       <r>     8.6016     5.1065    92.8992 </r>
       <r>     8.6638     4.5661    93.1831 </r>
       <r>     8.7259     2.1368    93.3159 </r>
       <r>     8.7881     4.6950    93.6078 </r>
       <r>     8.8503     3.4068    93.8196 </r>
       <r>     8.9124     3.0989    94.0122 </r>
       <r>     8.9746     2.6976    94.1800 </r>
       <r>     9.0368     1.2424    94.2572 </r>
       <r>     9.0989     3.7696    94.4915 </r>
       <r>     9.1611     2.9247    94.6734 </r>
       <r>     9.2233     4.1275    94.9300 </r>
       <r>     9.2854     4.0629    95.1825 </r>
       <r>     9.3476     2.3428    95.3282 </r>
       <r>     9.4098     3.1745    95.5255 </r>
       <r>     9.4720     3.6719    95.7538 </r>
       <r>     9.5341     4.7152    96.0470 </r>
       <r>     9.5963     2.7465    96.2177 </r>
       <r>     9.6585     8.9840    96.7762 </r>
       <r>     9.7206     5.0429    97.0897 </r>
       <r>     9.7828     3.4137    97.3020 </r>
       <r>     9.8450     4.3958    97.5752 </r>
       <r>     9.9071     2.5196    97.7319 </r>
       <r>     9.9693     3.2216    97.9322 </r>
       <r>    10.0315     3.1528    98.1282 </r>
       <r>    10.0936     2.5059    98.2840 </r>
       <r>    10.1558     1.6930    98.3892 </r>
       <r>    10.2180     4.2248    98.6519 </r>
       <r>    10.2801     4.1114    98.9075 </r>
       <r>    10.3423     2.8027    99.0817 </r>
       <r>    10.4045     5.1834    99.4040 </r>
       <r>    10.4666     4.2844    99.6703 </r>
       <r>    10.5288     5.9499   100.0402 </r>
       <r>    10.5910     2.8172   100.2153 </r>
       <r>    10.6532     0.8303   100.2670 </r>
       <r>    10.7153     2.8353   100.4432 </r>
       <r>    10.7775     3.5125   100.6616 </r>
       <r>    10.8397     4.7266   100.9554 </r>
       <r>    10.9018     2.5322   101.1129 </r>
       <r>    10.9640     2.8463   101.2898 </r>
       <r>    11.0262     2.9508   101.4733 </r>
       <r>    11.0883     2.3165   101.6173 </r>
       <r>    11.1505     1.6642   101.7207 </r>
       <r>    11.2127     4.0629   101.9733 </r>
       <r>    11.2748     5.2182   102.2977 </r>
       <r>    11.3370     4.4199   102.5725 </r>
       <r>    11.3992     3.1276   102.7669 </r>
       <r>    11.4613     2.8687   102.9453 </r>
       <r>    11.5235     2.9784   103.1304 </r>
       <r>    11.5857     0.9583   103.1900 </r>
       <r>    11.6478     2.1353   103.3228 </r>
       <r>    11.7100     4.5204   103.6038 </r>
       <r>    11.7722     5.9329   103.9726 </r>
       <r>    11.8344     3.0416   104.1617 </r>
       <r>    11.8965     3.1153   104.3554 </r>
       <r>    11.9587     3.0359   104.5441 </r>
       <r>    12.0209     5.2378   104.8698 </r>
       <r>    12.0830     4.4253   105.1449 </r>
       <r>    12.1452     2.2114   105.2824 </r>
       <r>    12.2074     1.9950   105.4064 </r>
       <r>    12.2695     3.0854   105.5982 </r>
       <r>    12.3317     4.9065   105.9032 </r>
       <r>    12.3939     6.4367   106.3034 </r>
       <r>    12.4560     4.6971   106.5954 </r>
       <r>    12.5182     1.9134   106.7144 </r>
       <r>    12.5804     5.8717   107.0794 </r>
       <r>    12.6425     5.3624   107.4128 </r>
       <r>    12.7047     2.9954   107.5990 </r>
       <r>    12.7669     1.4528   107.6893 </r>
       <r>    12.8291     4.7132   107.9823 </r>
       <r>    12.8912     4.4836   108.2611 </r>
       <r>    12.9534     2.9465   108.4443 </r>
       <r>    13.0156     5.8322   108.8068 </r>
       <r>    13.0777     5.1591   109.1276 </r>
       <r>    13.1399     5.0827   109.4435 </r>
       <r>    13.2021     2.1021   109.5742 </r>
       <r>    13.2642     5.0437   109.8878 </r>
       <r>    13.3264     4.6355   110.1760 </r>
       <r>    13.3886     6.1043   110.5555 </r>
       <r>    13.4507     3.7510   110.7887 </r>
       <r>    13.5129     2.6321   110.9523 </r>
       <r>    13.5751     3.6042   111.1764 </r>
       <r>    13.6372     2.3032   111.3195 </r>
       <r>    13.6994     3.9771   111.5668 </r>
       <r>    13.7616     2.8363   111.7431 </r>
       <r>    13.8237     3.2499   111.9452 </r>
       <r>    13.8859     3.0389   112.1341 </r>
       <r>    13.9481     6.8923   112.5626 </r>
       <r>    14.0103     3.4348   112.7761 </r>
       <r>    14.0724     2.6662   112.9419 </r>
       <r>    14.1346     4.9423   113.2491 </r>
       <r>    14.1968     4.8367   113.5498 </r>
       <r>    14.2589     5.4944   113.8914 </r>
       <r>    14.3211     4.5172   114.1722 </r>
       <r>    14.3833     3.6100   114.3967 </r>
       <r>    14.4454     2.5943   114.5579 </r>
       <r>    14.5076     4.7752   114.8548 </r>
       <r>    14.5698     3.2522   115.0570 </r>
       <r>    14.6319     1.8337   115.1710 </r>
       <r>    14.6941     4.1836   115.4311 </r>
       <r>    14.7563     9.5585   116.0253 </r>
       <r>    14.8184     6.2498   116.4139 </r>
       <r>    14.8806     2.8959   116.5939 </r>
       <r>    14.9428     4.9133   116.8993 </r>
       <r>    15.0050     8.2093   117.4097 </r>
       <r>    15.0671     4.0447   117.6611 </r>
       <r>    15.1293     3.1171   117.8549 </r>
       <r>    15.1915     2.9125   118.0360 </r>
       <r>    15.2536     7.8178   118.5220 </r>
       <r>    15.3158     2.3248   118.6666 </r>
       <r>    15.3780     2.4340   118.8179 </r>
       <r>    15.4401     5.6659   119.1701 </r>
       <r>    15.5023     3.4157   119.3825 </r>
       <r>    15.5645     1.9777   119.5054 </r>
       <r>    15.6266     1.7328   119.6131 </r>
       <r>    15.6888     3.0983   119.8058 </r>
       <r>    15.7510     1.2095   119.8809 </r>
       <r>    15.8131     0.6391   119.9207 </r>
       <r>    15.8753     0.5717   119.9562 </r>
       <r>    15.9375     0.0339   119.9583 </r>
       <r>    15.9996     0.0000   119.9583 </r>
       <r>    16.0618     0.0000   119.9583 </r>
       <r>    16.1240     0.0000   119.9583 </r>
       <r>    16.1862     0.0000   119.9583 </r>
       <r>    16.2483     0.0000   119.9583 </r>
       <r>    16.3105     0.0000   119.9583 </r>
       <r>    16.3727     0.0960   119.9643 </r>
       <r>    16.4348     0.5534   119.9987 </r>
       <r>    16.4970     0.0208   120.0000 </r>
       <r>    16.5592     0.0000   120.0000 </r>
       <r>    16.6213     0.0000   120.0000 </r>
       <r>    16.6835     0.0000   120.0000 </r>
       <r>    16.7457     0.0000   120.0000 </r>
       <r>    16.8078     0.0000   120.0000 </r>
       <r>    16.8700     0.0000   120.0000 </r>
       <r>    16.9322     0.0000   120.0000 </r>
       <r>    16.9943     0.0000   120.0000 </r>
       <r>    17.0565     0.0000   120.0000 </r>
       <r>    17.1187     0.0000   120.0000 </r>
       <r>    17.1808     0.0000   120.0000 </r>
       <r>    17.2430     0.0000   120.0000 </r>
      </set>
     </set>
    </array>
   </total>
  </dos>
 </calculation>
 <structure name="finalpos" >
  <crystal>
   <varray name="basis" >
    <v>       5.72509129       0.00000000       0.00116739 </v>
    <v>       0.00000000       4.23901728       0.00000000 </v>
    <v>       0.00171072       0.00000000       8.39290060 </v>
   </varray>
   <i name="volume">    203.68528914 </i>
   <varray name="rec_basis" >
    <v>       0.17466971       0.00000000      -0.00003560 </v>
    <v>       0.00000000       0.23590373       0.00000000 </v>
    <v>      -0.00002430       0.00000000       0.11914832 </v>
   </varray>
  </crystal>
  <varray name="positions" >
   <v>       0.82220000       0.25000000       0.39890000 </v>
   <v>       0.17853407       0.75000000       0.60036817 </v>
   <v>       0.67822884       0.75000000       0.89924402 </v>
   <v>       0.32190829       0.25000000       0.10043955 </v>
   <v>       0.84259109       0.25000000       0.07195786 </v>
   <v>       0.15745951       0.75000000       0.92735623 </v>
   <v>       0.65775655       0.75000000       0.57214192 </v>
   <v>       0.34288637       0.25000000       0.42747540 </v>
   <v>       0.93222903       0.25000000       0.72991956 </v>
   <v>       0.06768888       0.75000000       0.26946321 </v>
   <v>       0.56776374       0.75000000       0.23024965 </v>
   <v>       0.43252295       0.25000000       0.76944902 </v>
  </varray>
  <varray name="selective"  type="logical" >
   <v type="logical" >  F  F  F </v>
   <v type="logical" >  T  T  T </v>
   <v type="logical" >  T  T  T </v>
   <v type="logical" >  T  T  T </v>
   <v type="logical" >  T  T  T </v>
   <v type="logical" >  T  T  T </v>
   <v type="logical" >  T  T  T </v>
   <v type="logical" >  T  T  T </v>
   <v type="logical" >  T  T  T </v>
   <v type="logical" >  T  T  T </v>
   <v type="logical" >  T  T  T </v>
   <v type="logical" >  T  T  T </v>
  </varray>
  <nose>
   <v>      -3.00000000       0.00000000       0.00010000       0.00010000 </v>
  </nose>
 </structure>
</modeling>
