alloy-surf                              
           1
     8.478000    0.000000    0.000000
     0.000000    8.392900    0.000000
     0.000000    0.000000   14.949300
   In   Pd
   8  16
Direct configuration=     1
   0.37500000  0.60020000  0.04243000
   0.12500000  0.10024000  0.09735000
   0.37500000  0.89911997  0.23379999
   0.12500000  0.39886001  0.28895000
   0.87500000  0.60020000  0.04243000
   0.62500000  0.10024000  0.09735000
   0.87500000  0.89911997  0.23379999
   0.62500000  0.39886001  0.28895000
   0.37500000  0.26927999  0.00000000
   0.37500000  0.92720002  0.03439000
   0.12500000  0.42734000  0.10539000
   0.12500000  0.76925999  0.13970999
   0.37500000  0.23010001  0.19152001
   0.37500000  0.57201999  0.22599000
   0.12500000  0.07196000  0.29675999
   0.12500000  0.72987998  0.33107001
   0.87500000  0.26927999  0.00000000
   0.87500000  0.92720002  0.03439000
   0.62500000  0.42734000  0.10539000
   0.62500000  0.76925999  0.13970999
   0.87500000  0.23010001  0.19152001
   0.87500000  0.57201999  0.22599000
   0.62500000  0.07196000  0.29675999
   0.62500000  0.72987998  0.33107001
Direct configuration=     2
   0.37500000  0.60020000  0.04243000
   0.12500000  0.10024000  0.09735000
   0.37500000  0.89894849  0.23436957
   0.12500000  0.39885889  0.28907152
   0.87500000  0.60020000  0.04243000
   0.62500000  0.10024000  0.09735000
   0.87500000  0.89894849  0.23436957
   0.62500000  0.39885889  0.28907152
   0.37500000  0.26927999  0.00000000
   0.37500000  0.92720002  0.03439000
   0.12500000  0.42734000  0.10539000
   0.12500000  0.76925999  0.13970999
   0.37500000  0.23037783  0.19172344
   0.37500000  0.57214199  0.22615003
   0.12500000  0.07192223  0.29623322
   0.12500000  0.72977683  0.33021202
   0.87500000  0.26927999  0.00000000
   0.87500000  0.92720002  0.03439000
   0.62500000  0.42734000  0.10539000
   0.62500000  0.76925999  0.13970999
   0.87500000  0.23037783  0.19172344
   0.87500000  0.57214199  0.22615003
   0.62500000  0.07192223  0.29623322
   0.62500000  0.72977683  0.33021202
Direct configuration=     3
   0.37500000  0.60020000  0.04243000
   0.12500000  0.10024000  0.09735000
   0.37500000  0.89697619  0.24113024
   0.12500000  0.39871183  0.29059635
   0.87500000  0.60020000  0.04243000
   0.62500000  0.10024000  0.09735000
   0.87500000  0.89697619  0.24113024
   0.62500000  0.39871183  0.29059635
   0.37500000  0.26927999  0.00000000
   0.37500000  0.92720002  0.03439000
   0.12500000  0.42734000  0.10539000
   0.12500000  0.76925999  0.13970999
   0.37500000  0.23387168  0.19417823
   0.37500000  0.57322319  0.22791279
   0.12500000  0.07157061  0.28967857
   0.12500000  0.72888768  0.31990517
   0.87500000  0.26927999  0.00000000
   0.87500000  0.92720002  0.03439000
   0.62500000  0.42734000  0.10539000
   0.62500000  0.76925999  0.13970999
   0.87500000  0.23387168  0.19417823
   0.87500000  0.57322319  0.22791279
   0.62500000  0.07157061  0.28967857
   0.62500000  0.72888768  0.31990517
Direct configuration=     4
   0.37500000  0.60020000  0.04243000
   0.12500000  0.10024000  0.09735000
   0.37500000  0.89695271  0.24134483
   0.12500000  0.39861576  0.29063339
   0.87500000  0.60020000  0.04243000
   0.62500000  0.10024000  0.09735000
   0.87500000  0.89695271  0.24134483
   0.62500000  0.39861576  0.29063339
   0.37500000  0.26927999  0.00000000
   0.37500000  0.92720002  0.03439000
   0.12500000  0.42734000  0.10539000
   0.12500000  0.76925999  0.13970999
   0.37500000  0.23410922  0.19423829
   0.37500000  0.57301580  0.22783571
   0.12500000  0.07174180  0.28938299
   0.12500000  0.72878756  0.31971716
   0.87500000  0.26927999  0.00000000
   0.87500000  0.92720002  0.03439000
   0.62500000  0.42734000  0.10539000
   0.62500000  0.76925999  0.13970999
   0.87500000  0.23410922  0.19423829
   0.87500000  0.57301580  0.22783571
   0.62500000  0.07174180  0.28938299
   0.62500000  0.72878756  0.31971716
Direct configuration=     5
   0.37500000  0.60020000  0.04243000
   0.12500000  0.10024000  0.09735000
   0.37500000  0.89663793  0.24272479
   0.12500000  0.39778548  0.29089237
   0.87500000  0.60020000  0.04243000
   0.62500000  0.10024000  0.09735000
   0.87500000  0.89663793  0.24272479
   0.62500000  0.39778548  0.29089237
   0.37500000  0.26927999  0.00000000
   0.37500000  0.92720002  0.03439000
   0.12500000  0.42734000  0.10539000
   0.12500000  0.76925999  0.13970999
   0.37500000  0.23602321  0.19457564
   0.37500000  0.57116161  0.22697226
   0.12500000  0.07340900  0.28713825
   0.12500000  0.72784366  0.31883585
   0.87500000  0.26927999  0.00000000
   0.87500000  0.92720002  0.03439000
   0.62500000  0.42734000  0.10539000
   0.62500000  0.76925999  0.13970999
   0.87500000  0.23602321  0.19457564
   0.87500000  0.57116161  0.22697226
   0.62500000  0.07340900  0.28713825
   0.62500000  0.72784366  0.31883585
Direct configuration=     6
   0.37500000  0.60020000  0.04243000
   0.12500000  0.10024000  0.09735000
   0.37500000  0.89640636  0.24317411
   0.12500000  0.39749443  0.29100792
   0.87500000  0.60020000  0.04243000
   0.62500000  0.10024000  0.09735000
   0.87500000  0.89640636  0.24317411
   0.62500000  0.39749443  0.29100792
   0.37500000  0.26927999  0.00000000
   0.37500000  0.92720002  0.03439000
   0.12500000  0.42734000  0.10539000
   0.12500000  0.76925999  0.13970999
   0.37500000  0.23697991  0.19460150
   0.37500000  0.57012950  0.22637403
   0.12500000  0.07424588  0.28609033
   0.12500000  0.72726989  0.31889561
   0.87500000  0.26927999  0.00000000
   0.87500000  0.92720002  0.03439000
   0.62500000  0.42734000  0.10539000
   0.62500000  0.76925999  0.13970999
   0.87500000  0.23697991  0.19460150
   0.87500000  0.57012950  0.22637403
   0.62500000  0.07424588  0.28609033
   0.62500000  0.72726989  0.31889561
Direct configuration=     7
   0.37500000  0.60020000  0.04243000
   0.12500000  0.10024000  0.09735000
   0.37500000  0.89617556  0.24339092
   0.12500000  0.39748320  0.29108817
   0.87500000  0.60020000  0.04243000
   0.62500000  0.10024000  0.09735000
   0.87500000  0.89617556  0.24339092
   0.62500000  0.39748320  0.29108817
   0.37500000  0.26927999  0.00000000
   0.37500000  0.92720002  0.03439000
   0.12500000  0.42734000  0.10539000
   0.12500000  0.76925999  0.13970999
   0.37500000  0.23739130  0.19456621
   0.37500000  0.56976692  0.22611704
   0.12500000  0.07453032  0.28557688
   0.12500000  0.72695958  0.31893961
   0.87500000  0.26927999  0.00000000
   0.87500000  0.92720002  0.03439000
   0.62500000  0.42734000  0.10539000
   0.62500000  0.76925999  0.13970999
   0.87500000  0.23739130  0.19456621
   0.87500000  0.56976692  0.22611704
   0.62500000  0.07453032  0.28557688
   0.62500000  0.72695958  0.31893961
Direct configuration=     8
   0.37500000  0.60020000  0.04243000
   0.12500000  0.10024000  0.09735000
   0.37500000  0.89548291  0.24371780
   0.12500000  0.39785922  0.29128973
   0.87500000  0.60020000  0.04243000
   0.62500000  0.10024000  0.09735000
   0.87500000  0.89548291  0.24371780
   0.62500000  0.39785922  0.29128973
   0.37500000  0.26927999  0.00000000
   0.37500000  0.92720002  0.03439000
   0.12500000  0.42734000  0.10539000
   0.12500000  0.76925999  0.13970999
   0.37500000  0.23786365  0.19435446
   0.37500000  0.56965076  0.22582543
   0.12500000  0.07452625  0.28483733
   0.12500000  0.72636490  0.31907538
   0.87500000  0.26927999  0.00000000
   0.87500000  0.92720002  0.03439000
   0.62500000  0.42734000  0.10539000
   0.62500000  0.76925999  0.13970999
   0.87500000  0.23786365  0.19435446
   0.87500000  0.56965076  0.22582543
   0.62500000  0.07452625  0.28483733
   0.62500000  0.72636490  0.31907538
Direct configuration=     9
   0.37500000  0.60020000  0.04243000
   0.12500000  0.10024000  0.09735000
   0.37500000  0.89397830  0.24441368
   0.12500000  0.39861879  0.29171339
   0.87500000  0.60020000  0.04243000
   0.62500000  0.10024000  0.09735000
   0.87500000  0.89397830  0.24441368
   0.62500000  0.39861879  0.29171339
   0.37500000  0.26927999  0.00000000
   0.37500000  0.92720002  0.03439000
   0.12500000  0.42734000  0.10539000
   0.12500000  0.76925999  0.13970999
   0.37500000  0.23885575  0.19384588
   0.37500000  0.56948731  0.22521522
   0.12500000  0.07442513  0.28323966
   0.12500000  0.72505904  0.31941334
   0.87500000  0.26927999  0.00000000
   0.87500000  0.92720002  0.03439000
   0.62500000  0.42734000  0.10539000
   0.62500000  0.76925999  0.13970999
   0.87500000  0.23885575  0.19384588
   0.87500000  0.56948731  0.22521522
   0.62500000  0.07442513  0.28323966
   0.62500000  0.72505904  0.31941334
Direct configuration=    10
   0.37500000  0.60020000  0.04243000
   0.12500000  0.10024000  0.09735000
   0.37500000  0.89392249  0.24447630
   0.12500000  0.39857783  0.29173265
   0.87500000  0.60020000  0.04243000
   0.62500000  0.10024000  0.09735000
   0.87500000  0.89392249  0.24447630
   0.62500000  0.39857783  0.29173265
   0.37500000  0.26927999  0.00000000
   0.37500000  0.92720002  0.03439000
   0.12500000  0.42734000  0.10539000
   0.12500000  0.76925999  0.13970999
   0.37500000  0.23887282  0.19378751
   0.37500000  0.56950265  0.22519789
   0.12500000  0.07439942  0.28314829
   0.12500000  0.72494554  0.31946555
   0.87500000  0.26927999  0.00000000
   0.87500000  0.92720002  0.03439000
   0.62500000  0.42734000  0.10539000
   0.62500000  0.76925999  0.13970999
   0.87500000  0.23887282  0.19378751
   0.87500000  0.56950265  0.22519789
   0.62500000  0.07439942  0.28314829
   0.62500000  0.72494554  0.31946555
Direct configuration=    11
   0.37500000  0.60020000  0.04243000
   0.12500000  0.10024000  0.09735000
   0.37500000  0.89379206  0.24468500
   0.12500000  0.39835373  0.29177919
   0.87500000  0.60020000  0.04243000
   0.62500000  0.10024000  0.09735000
   0.87500000  0.89379206  0.24468500
   0.62500000  0.39835373  0.29177919
   0.37500000  0.26927999  0.00000000
   0.37500000  0.92720002  0.03439000
   0.12500000  0.42734000  0.10539000
   0.12500000  0.76925999  0.13970999
   0.37500000  0.23888278  0.19359190
   0.37500000  0.56955108  0.22518557
   0.12500000  0.07430264  0.28288962
   0.12500000  0.72460129  0.31962541
   0.87500000  0.26927999  0.00000000
   0.87500000  0.92720002  0.03439000
   0.62500000  0.42734000  0.10539000
   0.62500000  0.76925999  0.13970999
   0.87500000  0.23888278  0.19359190
   0.87500000  0.56955108  0.22518557
   0.62500000  0.07430264  0.28288962
   0.62500000  0.72460129  0.31962541
Direct configuration=    12
   0.37500000  0.60020000  0.04243000
   0.12500000  0.10024000  0.09735000
   0.37500000  0.89361771  0.24499127
   0.12500000  0.39793106  0.29183307
   0.87500000  0.60020000  0.04243000
   0.62500000  0.10024000  0.09735000
   0.87500000  0.89361771  0.24499127
   0.62500000  0.39793106  0.29183307
   0.37500000  0.26927999  0.00000000
   0.37500000  0.92720002  0.03439000
   0.12500000  0.42734000  0.10539000
   0.12500000  0.76925999  0.13970999
   0.37500000  0.23886993  0.19329262
   0.37500000  0.56958259  0.22520108
   0.12500000  0.07417134  0.28255411
   0.12500000  0.72411568  0.31984473
   0.87500000  0.26927999  0.00000000
   0.87500000  0.92720002  0.03439000
   0.62500000  0.42734000  0.10539000
   0.62500000  0.76925999  0.13970999
   0.87500000  0.23886993  0.19329262
   0.87500000  0.56958259  0.22520108
   0.62500000  0.07417134  0.28255411
   0.62500000  0.72411568  0.31984473
