 vasp.5.4.4.18Apr17-6-g9f103f2a35 (build May 11 2017 09:47:33) complex          
  
 executed on            tekla2IFC date 2020.09.14  09:47:01
 running on   12 total cores
 distrk:  each k-point on   12 cores,    1 groups
 distr:  one band on NCORES_PER_BAND=   1 cores,   12 groups


--------------------------------------------------------------------------------------------------------


 INCAR:
 POTCAR:    PAW_PBE In 08Apr2002                  
 POTCAR:    PAW_PBE Pd 04Jan2005                  

 ----------------------------------------------------------------------------- 
|                                                                             |
|           W    W    AA    RRRRR   N    N  II  N    N   GGGG   !!!           |
|           W    W   A  A   R    R  NN   N  II  NN   N  G    G  !!!           |
|           W    W  A    A  R    R  N N  N  II  N N  N  G       !!!           |
|           W WW W  AAAAAA  RRRRR   N  N N  II  N  N N  G  GGG   !            |
|           WW  WW  A    A  R   R   N   NN  II  N   NN  G    G                |
|           W    W  A    A  R    R  N    N  II  N    N   GGGG   !!!           |
|                                                                             |
|      For optimal performance we recommend to set                            |
|        NCORE= 4 - approx SQRT( number of cores)                             |
|      NCORE specifies how many cores store one orbital (NPAR=cpu/NCORE).     |
|      This setting can  greatly improve the performance of VASP for DFT.     |
|      The default,   NCORE=1            might be grossly inefficient         |
|      on modern multi-core architectures or massively parallel machines.     |
|      Do your own testing !!!!                                               |
|      Unfortunately you need to use the default for GW and RPA calculations. |
|      (for HF NCORE is supported but not extensively tested yet)             |
|                                                                             |
 ----------------------------------------------------------------------------- 

 POTCAR:    PAW_PBE In 08Apr2002                  
  local pseudopotential read in
  partial core-charges read in
  partial kinetic energy density read in
  atomic valenz-charges read in
  non local Contribution for L=           0  read in
    real space projection operators read in
  non local Contribution for L=           0  read in
    real space projection operators read in
  non local Contribution for L=           1  read in
    real space projection operators read in
  non local Contribution for L=           1  read in
    real space projection operators read in
  non local Contribution for L=           2  read in
    real space projection operators read in
    PAW grid and wavefunctions read in
 
   number of l-projection  operators is LMAX  =           5
   number of lm-projection operators is LMMAX =          13
 
 POTCAR:    PAW_PBE Pd 04Jan2005                  
  local pseudopotential read in
  partial core-charges read in
  partial kinetic energy density read in
  atomic valenz-charges read in
  non local Contribution for L=           2  read in
    real space projection operators read in
  non local Contribution for L=           2  read in
    real space projection operators read in
  non local Contribution for L=           0  read in
    real space projection operators read in
  non local Contribution for L=           0  read in
    real space projection operators read in
  non local Contribution for L=           1  read in
    real space projection operators read in
  non local Contribution for L=           1  read in
    real space projection operators read in
    PAW grid and wavefunctions read in
 
   number of l-projection  operators is LMAX  =           6
   number of lm-projection operators is LMMAX =          18
 
 Optimization of the real space projectors (new method)

 maximal supplied QI-value         = 12.09
 optimisation between [QCUT,QGAM] = [ 10.76, 21.65] = [ 32.44,131.24] Ry 
 Optimized for a Real-space Cutoff    1.65 Angstroem

   l    n(q)    QCUT    max X(q) W(low)/X(q) W(high)/X(q)  e(spline) 
   0     11    10.764   106.980    0.17E-03    0.26E-03    0.98E-06
   0     11    10.764    81.086    0.18E-03    0.28E-03    0.11E-05
   1     10    10.764    53.097    0.42E-03    0.22E-03    0.10E-05
   1     10    10.764    32.621    0.39E-03    0.21E-03    0.95E-06
   2     10    10.764     8.820    0.14E-03    0.25E-03    0.18E-06
 Optimization of the real space projectors (new method)

 maximal supplied QI-value         = 14.36
 optimisation between [QCUT,QGAM] = [ 10.77, 21.69] = [ 32.49,131.70] Ry 
 Optimized for a Real-space Cutoff    1.46 Angstroem

   l    n(q)    QCUT    max X(q) W(low)/X(q) W(high)/X(q)  e(spline) 
   2      9    10.771    59.108    0.11E-03    0.29E-03    0.19E-06
   2      9    10.771    58.101    0.11E-03    0.29E-03    0.19E-06
   0     10    10.771   102.235    0.41E-04    0.80E-04    0.63E-07
   0     10    10.771    58.388    0.39E-04    0.76E-04    0.60E-07
   1      9    10.771    22.191    0.50E-03    0.23E-03    0.35E-06
   1      9    10.771    15.590    0.42E-03    0.19E-03    0.29E-06
  PAW_PBE In 08Apr2002                  :
 energy of atom  1       EATOM=  -53.7908
 kinetic energy error for atom=    0.0000 (will be added to EATOM!!)
  PAW_PBE Pd 04Jan2005                  :
 energy of atom  2       EATOM= -809.7530
 kinetic energy error for atom=    0.0051 (will be added to EATOM!!)
 
 
 POSCAR: InPd2                                   
  positions in cartesian coordinates
  No initial velocities read in
 exchange correlation table for  LEXCH =        8
   RHO(1)=    0.500       N(1)  =     2000
   RHO(2)=  100.500       N(2)  =     4000
 


--------------------------------------------------------------------------------------------------------


 ion  position               nearest neighbor table
   1  0.399  0.505  0.000-  12 2.74   9 2.75  15 2.77  10 2.85  11 2.94  13 2.99   4 3.39   3 3.80

   2  0.899  0.235  0.074-  17 2.74   9 2.74  12 2.75  16 2.75  14 2.77  11 2.85  18 2.94  10 2.94
                             3 3.39   4 3.81
   3  0.100  0.828  0.104-  16 2.74  13 2.75   9 2.75  19 2.77  11 2.77  14 2.85  15 2.94  17 2.99
                             6 3.39   2 3.39   1 3.80   5 3.81
   4  0.600  0.558  0.179-  13 2.74  21 2.74  16 2.75  20 2.75  10 2.77  18 2.77  15 2.85  22 2.94
                            14 2.94  12 2.99   1 3.39   5 3.39   6 3.80   2 3.81
   5  0.399  0.151  0.209-  20 2.74  12 2.74  17 2.75  13 2.75  23 2.77  15 2.77  18 2.85  19 2.94
                            11 2.94  21 2.99   8 3.39   4 3.39   7 3.80   3 3.81
   6  0.899  0.881  0.283-  17 2.74  20 2.75  24 2.75  14 2.77  22 2.77  19 2.85  18 2.94  16 2.99
                             3 3.39   7 3.39   4 3.80   8 3.81
   7  0.100  0.473  0.313-  16 2.74  24 2.74  21 2.75  17 2.75  19 2.77  22 2.85  15 2.94  23 2.94
                             6 3.39   5 3.80
   8  0.600  0.204  0.387-  21 2.74  24 2.75  18 2.77  23 2.85  22 2.94  20 2.99   5 3.39   6 3.81

   9  0.072  0.518  0.004-   2 2.74   1 2.75   3 2.75  10 2.92  11 2.95  15 2.98  16 3.04
  10  0.730  0.576  0.023-   4 2.77   1 2.85  14 2.88   9 2.92   2 2.94  12 2.95  16 2.98
  11  0.230  0.163  0.051-   3 2.77   2 2.85  15 2.88  12 2.92   5 2.94   1 2.94   9 2.95  17 2.95
                            13 2.98
  12  0.572  0.222  0.070-   1 2.74   5 2.74   2 2.75  11 2.92  18 2.95  10 2.95  14 2.98   4 2.99
                            13 3.04
  13  0.427  0.841  0.109-   4 2.74   3 2.75   5 2.75  14 2.92  15 2.96  19 2.98  11 2.98   1 2.99
                            20 3.04  12 3.04
  14  0.769  0.899  0.127-   6 2.77   2 2.77   3 2.85  18 2.88  10 2.88  13 2.92   4 2.94  16 2.95
                            12 2.98  20 2.98
  15  0.269  0.486  0.156-   1 2.77   5 2.77   4 2.85  11 2.88  19 2.88  16 2.92   3 2.94   7 2.94
                            13 2.96  21 2.96   9 2.98  17 2.98
  16  0.927  0.544  0.174-   7 2.74   3 2.74   4 2.75   2 2.75  15 2.92  22 2.95  14 2.95  18 2.98
                            10 2.98   6 2.99  17 3.04   9 3.04
  17  0.072  0.164  0.213-   6 2.74   2 2.74   5 2.75   7 2.75  18 2.92  19 2.95  11 2.95  23 2.98
                            15 2.98   3 2.99  24 3.04  16 3.04
  18  0.730  0.222  0.232-   4 2.77   8 2.77   5 2.85  14 2.88  22 2.88  17 2.92   2 2.94   6 2.94
                            12 2.95  20 2.95  16 2.98  24 2.98
  19  0.230  0.809  0.260-   3 2.77   7 2.77   6 2.85  23 2.88  15 2.88  20 2.92   5 2.94  17 2.95
                            13 2.98  21 2.98
  20  0.572  0.868  0.279-   5 2.74   6 2.75   4 2.75  19 2.92  18 2.95  22 2.98  14 2.98   8 2.99
                            21 3.04  13 3.04
  21  0.427  0.487  0.317-   8 2.74   4 2.74   7 2.75  22 2.92  23 2.96  15 2.96  19 2.98   5 2.99
                            20 3.04
  22  0.769  0.545  0.336-   6 2.77   7 2.85  18 2.88  21 2.92   4 2.94   8 2.94  16 2.95  24 2.95
                            20 2.98
  23  0.269  0.132  0.364-   5 2.77   8 2.85  19 2.88  24 2.92   7 2.94  21 2.96  17 2.98
  24  0.927  0.190  0.383-   7 2.74   8 2.75   6 2.75  23 2.92  22 2.95  18 2.98  17 3.04
 
  LATTYP: Found a simple monoclinic cell.
 ALAT       =    11.0099978018
 B/A-ratio  =     1.4826523764
 C/A-ratio  =     1.6563732540
 COS(beta)  =    -0.9546380767
  
  Lattice vectors:
  
 A1 = (  -8.3949019384,  -7.1235997249,   0.0000000000)
 A2 = (   0.0000000000,   0.0000000000, -16.3239994049)
 A3 = (  16.7878024053,   7.1235997249,   0.0000000000)


Analysis of symmetry for initial positions (statically):
=====================================================================
 Subroutine PRICEL returns:
 Original cell was already a primitive cell.
 

 Routine SETGRP: Setting up the symmetry group for a 
 simple monoclinic supercell.


 Subroutine GETGRP returns: Found  1 space group operations
 (whereof  1 operations were pure point group operations)
 out of a pool of  4 trial point group operations.


The static configuration has the point symmetry C_1 .


Analysis of symmetry for dynamics (positions and initial velocities):
=====================================================================
 Subroutine PRICEL returns:
 Original cell was already a primitive cell.
 

 Routine SETGRP: Setting up the symmetry group for a 
 simple monoclinic supercell.


 Subroutine GETGRP returns: Found  1 space group operations
 (whereof  1 operations were pure point group operations)
 out of a pool of  4 trial point group operations.


The dynamic configuration has the point symmetry C_1 .


Analysis of constrained symmetry for selective dynamics:
=====================================================================
 Subroutine PRICEL returns:
 Original cell was already a primitive cell.
 

 Routine SETGRP: Setting up the symmetry group for a 
 simple monoclinic supercell.


 Subroutine GETGRP returns: Found  1 space group operations
 (whereof  1 operations were pure point group operations)
 out of a pool of  4 trial point group operations.


The constrained configuration has the point symmetry C_1 .


 Subroutine INISYM returns: Found  1 space group operations
 (whereof  1 operations are pure point group operations),
 and found     1 'primitive' translations

 
 
 KPOINTS: K-Points                                

Automatic generation of k-mesh.
Space group operators:
 irot       det(A)        alpha          n_x          n_y          n_z        tau_x        tau_y        tau_z
    1     1.000000     0.000001     1.000000     0.000000     0.000000     0.000000     0.000000     0.000000
 
 Subroutine IBZKPT returns following result:
 ===========================================
 
 Found     11 irreducible k-points:
 
 Following reciprocal coordinates:
            Coordinates               Weight
  0.000000  0.000000  0.000000      1.000000
  0.250000  0.000000  0.000000      2.000000
  0.500000  0.000000  0.000000      1.000000
  0.000000  0.200000  0.000000      2.000000
  0.250000  0.200000  0.000000      2.000000
  0.500000  0.200000  0.000000      2.000000
 -0.250000  0.200000  0.000000      2.000000
  0.000000  0.400000  0.000000      2.000000
  0.250000  0.400000  0.000000      2.000000
  0.500000  0.400000  0.000000      2.000000
 -0.250000  0.400000  0.000000      2.000000
 
 Following cartesian coordinates:
            Coordinates               Weight
  0.000000  0.000000  0.000000      1.000000
  0.029787 -0.000008  0.000000      2.000000
  0.059574 -0.000017  0.000000      1.000000
  0.000000  0.028076  0.000000      2.000000
  0.029787  0.028067  0.000000      2.000000
  0.059574  0.028059  0.000000      2.000000
 -0.029787  0.028084  0.000000      2.000000
  0.000000  0.056151  0.000000      2.000000
  0.029787  0.056143  0.000000      2.000000
  0.059574  0.056135  0.000000      2.000000
 -0.029787  0.056160  0.000000      2.000000
 


--------------------------------------------------------------------------------------------------------




 Dimension of arrays:
   k-points           NKPTS =     11   k-points in BZ     NKDIM =     11   number of bands    NBANDS=    120
   number of dos      NEDOS =    301   number of ions     NIONS =     24
   non local maximal  LDIM  =      6   non local SUM 2l+1 LMDIM =     18
   total plane-waves  NPLWV = 172800
   max r-space proj   IRMAX =   3374   max aug-charges    IRDMAX=  20171
   dimension x,y,z NGX =    48 NGY =   40 NGZ =   90
   dimension x,y,z NGXF=    96 NGYF=   80 NGZF=  180
   support grid    NGXF=    96 NGYF=   80 NGZF=  180
   ions per type =               8  16
   NGX,Y,Z   is equivalent  to a cutoff of   9.51,  9.33,  9.17 a.u.
   NGXF,Y,Z  is equivalent  to a cutoff of  19.02, 18.67, 18.33 a.u.

 SYSTEM =  alloy-surf                              
 POSCAR =  InPd2                                   

 Startparameter for this run:
   NWRITE =      0    write-flag & timer
   PREC   = normal    normal or accurate (medium, high low for compatibility)
   ISTART =      0    job   : 0-new  1-cont  2-samecut
   ICHARG =      2    charge: 1-file 2-atom 10-const
   ISPIN  =      1    spin polarized calculation?
   LNONCOLLINEAR =      F non collinear calculations
   LSORBIT =      F    spin-orbit coupling
   INIWAV =      1    electr: 0-lowe 1-rand  2-diag
   LASPH  =      F    aspherical Exc in radial PAW
   METAGGA=      F    non-selfconsistent MetaGGA calc.

 Electronic Relaxation 1
   ENCUT  =  450.0 eV  33.07 Ry    5.75 a.u.  14.52 12.32 28.24*2*pi/ulx,y,z
   ENINI  =  450.0     initial cutoff
   ENAUG  =  416.2 eV  augmentation charge cutoff
   NELM   =    100;   NELMIN=  5; NELMDL= -7     # of ELM steps 
   EDIFF  = 0.1E-04   stopping-criterion for ELM
   LREAL  =      T    real-space projection
   NLSPLINE    = F    spline interpolate recip. space projectors
   LCOMPAT=      F    compatible to vasp.4.4
   GGA_COMPAT  = T    GGA compatible to vasp.4.4-vasp.4.6
   LMAXPAW     = -100 max onsite density
   LMAXMIX     =    2 max onsite mixed and CHGCAR
   VOSKOWN=      0    Vosko Wilk Nusair interpolation
   ROPT   =   -0.00050  -0.00050
 Ionic relaxation
   EDIFFG = -.3E-01   stopping-criterion for IOM
   NSW    =    200    number of steps for IOM
   NBLOCK =      1;   KBLOCK =    200    inner block; outer block 
   IBRION =      1    ionic relax: 0-MD 1-quasi-New 2-CG
   NFREE  =      2    steps in history (QN), initial steepest desc. (CG)
   ISIF   =      2    stress and relaxation
   IWAVPR =     11    prediction:  0-non 1-charg 2-wave 3-comb
   ISYM   =      2    0-nonsym 1-usesym 2-fastsym
   LCORR  =      T    Harris-Foulkes like correction to forces

   POTIM  = 0.1500    time-step for ionic-motion
   TEIN   =    0.0    initial temperature
   TEBEG  =    0.0;   TEEND  =   0.0 temperature during run
   SMASS  =  -3.00    Nose mass-parameter (am)
   estimated Nose-frequenzy (Omega)   =  0.10E-29 period in steps =****** mass=  -0.161E-26a.u.
   SCALEE = 1.0000    scale energy and forces
   NPACO  =    256;   APACO  = 16.0  distance and # of slots for P.C.
   PSTRESS=    0.0 pullay stress

  Mass of Ions in am
   POMASS = 114.82106.42
  Ionic Valenz
   ZVAL   =   3.00 10.00
  Atomic Wigner-Seitz radii
   RWIGS  =  -1.00 -1.00
  virtual crystal weights 
   VCA    =   1.00  1.00
   NELECT =     184.0000    total number of electrons
   NUPDOWN=      -1.0000    fix difference up-down

 DOS related values:
   EMIN   =  10.00;   EMAX   =-10.00  energy-range for DOS
   EFERMI =   0.00
   ISMEAR =     0;   SIGMA  =   0.03  broadening in eV -4-tet -1-fermi 0-gaus

 Electronic relaxation 2 (details)
   IALGO  =     68    algorithm
   LDIAG  =      T    sub-space diagonalisation (order eigenvalues)
   LSUBROT=      F    optimize rotation matrix (better conditioning)
   TURBO    =      0    0=normal 1=particle mesh
   IRESTART =      0    0=no restart 2=restart with 2 vectors
   NREBOOT  =      0    no. of reboots
   NMIN     =      0    reboot dimension
   EREF     =   0.00    reference energy to select bands
   IMIX   =      4    mixing-type and parameters
     AMIX     =   0.10;   BMIX     =  3.00
     AMIX_MAG =   0.40;   BMIX_MAG =  3.00
     AMIN     =   0.01
     WC   =   100.;   INIMIX=   1;  MIXPRE=   1;  MAXMIX= -45

 Intra band minimization:
   WEIMIN = 0.0010     energy-eigenvalue tresh-hold
   EBREAK =  0.21E-07  absolut break condition
   DEPER  =   0.30     relativ break condition  

   TIME   =   0.40     timestep for ELM

  volume/ion in A,a.u.               =      40.67       274.42
  Fermi-wavevector in a.u.,A,eV,Ry     =   0.938717  1.773918 11.989315  0.881190
  Thomas-Fermi vector in A             =   2.065957
 
 Write flags
   LWAVE        =      F    write WAVECAR
   LDOWNSAMPLE  =      F    k-point downsampling of WAVECAR
   LCHARG       =      F    write CHGCAR
   LVTOT        =      F    write LOCPOT, total local potential
   LVHAR        =      F    write LOCPOT, Hartree potential only
   LELF         =      F    write electronic localiz. function (ELF)
   LORBIT       =      0    0 simple, 1 ext, 2 COOP (PROOUT), +10 PAW based schemes


 Dipole corrections
   LMONO  =      F    monopole corrections only (constant potential shift)
   LDIPOL =      T    correct potential (dipole corrections)
   IDIPOL =      3    1-x, 2-y, 3-z, 4-all directions 
   EPSILON=  1.0000000 bulk dielectric constant

 Exchange correlation treatment:
   GGA     =    PE    GGA type
   LEXCH   =     8    internal setting for exchange type
   VOSKOWN=      0    Vosko Wilk Nusair interpolation
   LHFCALC =     F    Hartree Fock is set to
   LHFONE  =     F    Hartree Fock one center treatment
   AEXX    =    0.0000 exact exchange contribution

 Linear response parameters
   LEPSILON=     F    determine dielectric tensor
   LRPA    =     F    only Hartree local field effects (RPA)
   LNABLA  =     F    use nabla operator in PAW spheres
   LVEL    =     F    velocity operator in full k-point grid
   LINTERFAST=   F  fast interpolation
   KINTER  =     0    interpolate to denser k-point grid
   CSHIFT  =0.1000    complex shift for real part using Kramers Kronig
   OMEGAMAX=  -1.0    maximum frequency
   DEG_THRESHOLD= 0.2000000E-02 threshold for treating states as degnerate
   RTIME   =   -0.100 relaxation time in fs
  (WPLASMAI=    0.000 imaginary part of plasma frequency in eV, 0.658/RTIME)
   DFIELD  = 0.0000000 0.0000000 0.0000000 field for delta impulse in time
 
 Orbital magnetization related:
   ORBITALMAG=     F  switch on orbital magnetization
   LCHIMAG   =     F  perturbation theory with respect to B field
   DQ        =  0.001000  dq finite difference perturbation B field
   LLRAUG    =     F  two centre corrections for induced B field



--------------------------------------------------------------------------------------------------------


 quasi-Newton-method for relaxation of ions
   using selective dynamics as specified on POSCAR
   WARNING: If single coordinates had been selected the selection of coordinates
            is made according to the corresponding   d i r e c t   coordinates!
            Don't support selection of single cartesian coordinates -- sorry ...
  !
 charge density and potential will be updated during run
 non-spin polarized calculation
 RMM-DIIS sequential band-by-band and
  variant of blocked Davidson during initial phase
 perform sub-space diagonalisation
    before iterative eigenvector-optimisation
 modified Broyden-mixing scheme, WC =      100.0
 initial mixing is a Kerker type mixing with AMIX =  0.1000 and BMIX =      3.0000
 Hartree-type preconditioning will be used
 using additional bands           28
 real space projection scheme for non local part
 use partial core corrections
 calculate Harris-corrections to forces 
   (improved forces if not selfconsistent)
 use gradient corrections 
 use of overlap-Matrix (Vanderbilt PP)
 Gauss-broadening in eV      SIGMA  =   0.03


--------------------------------------------------------------------------------------------------------


  energy-cutoff  :      450.00
  volume of cell :      975.97
      direct lattice vectors                 reciprocal lattice vectors
     8.392900467  0.000000000  0.000000000     0.119148321 -0.000033476  0.000000000
     0.002001472  7.123599725  0.000000000     0.000000000  0.140378466  0.000000000
     0.000000000  0.000000000 16.323999405     0.000000000  0.000000000  0.061259497

  length of vectors
     8.392900467  7.123600006 16.323999405     0.119148326  0.140378466  0.061259497


 
 k-points in units of 2pi/SCALE and weight: K-Points                                
   0.00000000  0.00000000  0.00000000       0.050
   0.02978708 -0.00000837  0.00000000       0.100
   0.05957416 -0.00001674  0.00000000       0.050
   0.00000000  0.02807569  0.00000000       0.100
   0.02978708  0.02806732  0.00000000       0.100
   0.05957416  0.02805895  0.00000000       0.100
  -0.02978708  0.02808406  0.00000000       0.100
   0.00000000  0.05615139  0.00000000       0.100
   0.02978708  0.05614302  0.00000000       0.100
   0.05957416  0.05613465  0.00000000       0.100
  -0.02978708  0.05615976  0.00000000       0.100
 
 k-points in reciprocal lattice and weights: K-Points                                
   0.00000000  0.00000000  0.00000000       0.050
   0.25000000  0.00000000  0.00000000       0.100
   0.50000000  0.00000000  0.00000000       0.050
   0.00000000  0.20000000  0.00000000       0.100
   0.25000000  0.20000000  0.00000000       0.100
   0.50000000  0.20000000  0.00000000       0.100
  -0.25000000  0.20000000  0.00000000       0.100
   0.00000000  0.40000000  0.00000000       0.100
   0.25000000  0.40000000  0.00000000       0.100
   0.50000000  0.40000000  0.00000000       0.100
  -0.25000000  0.40000000  0.00000000       0.100
 
 position of ions in fractional coordinates (direct lattice) 
   0.39873999  0.50483000  0.00000000
   0.89907002  0.23477000  0.07430000
   0.10028000  0.82758999  0.10429000
   0.60031003  0.55791998  0.17871000
   0.39882001  0.15073000  0.20870000
   0.89915001  0.88067001  0.28299001
   0.10036000  0.47349000  0.31298000
   0.60039002  0.20382001  0.38741001
   0.07184000  0.51801002  0.00426000
   0.72974998  0.57587999  0.02296000
   0.23006000  0.16347000  0.05126000
   0.57196999  0.22160000  0.07004000
   0.42738000  0.84114999  0.10867000
   0.76928997  0.89903003  0.12737000
   0.26940000  0.48635000  0.15558000
   0.92730999  0.54435003  0.17433000
   0.07192000  0.16391000  0.21296000
   0.72983003  0.22178000  0.23164999
   0.23014000  0.80936998  0.25995001
   0.57204998  0.86750001  0.27873999
   0.42747000  0.48705000  0.31737000
   0.76937002  0.54492998  0.33607000
   0.26947999  0.13225000  0.36427999
   0.92738998  0.19024999  0.38302001
 
 position of ions in cartesian coordinates  (Angst):
   3.34759548  3.59620687  0.00000000
   7.54627511  1.67240751  1.21287313
   0.84329647  5.89541982  1.70242992
   5.03945897  3.97439861  2.91726191
   3.34755835  1.07374018  3.40681870
   7.54823921  6.27354065  4.61952873
   0.84325916  3.37295323  5.10908527
   5.03942159  1.45193213  6.32408085
   0.60398278  3.69009604  0.06954024
   6.12587153  4.10233855  0.37479902
   1.93119783  1.16449485  0.83676818
   4.80093069  1.57858967  1.14333296
   3.58864130  5.99201581  1.77392908
   6.45837354  6.40433007  2.07918780
   2.26202081  3.46456273  2.53968781
   7.78390995  3.87773171  2.84576275
   0.60394546  1.16762924  3.47635899
   6.12583466  1.57987196  3.78145438
   1.93316205  5.76562778  4.24342384
   4.80289478  6.17972281  4.55015141
   3.58868797  3.46954922  5.18074765
   6.45833666  3.88186306  5.48600650
   2.26198343  0.94209604  5.94650626
   7.78387257  1.35526481  6.25241847
 


--------------------------------------------------------------------------------------------------------


 k-point  1 :   0.0000 0.0000 0.0000  plane waves:   21217
 k-point  2 :   0.2500 0.0000 0.0000  plane waves:   21147
 k-point  3 :   0.5000 0.0000 0.0000  plane waves:   21174
 k-point  4 :   0.0000 0.2000 0.0000  plane waves:   21183
 k-point  5 :   0.2500 0.2000 0.0000  plane waves:   21123
 k-point  6 :   0.5000 0.2000 0.0000  plane waves:   21160
 k-point  7 :  -0.2500 0.2000 0.0000  plane waves:   21131
 k-point  8 :   0.0000 0.4000 0.0000  plane waves:   21182
 k-point  9 :   0.2500 0.4000 0.0000  plane waves:   21159
 k-point 10 :   0.5000 0.4000 0.0000  plane waves:   21126
 k-point 11 :  -0.2500 0.4000 0.0000  plane waves:   21161

 maximum and minimum number of plane-waves per node :     21217    21123

 maximum number of plane-waves:     21217
 maximum index in each direction: 
   IXMAX=   14   IYMAX=   12   IZMAX=   28
   IXMIN=  -15   IYMIN=  -12   IZMIN=  -28


 serial   3D FFT for wavefunctions
 parallel 3D FFT for charge:
    minimum data exchange during FFTs selected (reduces bandwidth)


 total amount of memory used by VASP MPI-rank0    96544. kBytes
=======================================================================

   base      :      30000. kBytes
   nonlr-proj:      10055. kBytes
   fftplans  :       4611. kBytes
   grid      :      13447. kBytes
   one-center:        373. kBytes
   wavefun   :      38058. kBytes
 
     INWAV:  cpu time    0.0000: real time    0.0001
 Broyden mixing: mesh for mixing (old mesh)
   NGX = 29   NGY = 25   NGZ = 57
  (NGX  = 96   NGY  = 80   NGZ  =180)
  gives a total of  41325 points

 initial charge density was supplied:
 charge density of overlapping atoms calculated
 number of electron     184.0000000 magnetization 
 keeping initial charge density in first step


--------------------------------------------------------------------------------------------------------


 Maximum index for non-local projection operator         3237
 Maximum index for augmentation-charges         1669 (set IRDMAX)


--------------------------------------------------------------------------------------------------------


 First call to EWALD:  gamma=   0.179
 Maximum number of real-space cells 3x 4x 2
 Maximum number of reciprocal cells 2x 2x 4

    FEWALD:  cpu time    0.0030: real time    0.0025


--------------------------------------- Iteration      1(   1)  ---------------------------------------


    POTLOK:  cpu time    0.1660: real time    0.1679
    SETDIJ:  cpu time    0.0140: real time    0.0146
     EDDAV:  cpu time   15.3097: real time   15.3506
       DOS:  cpu time    0.0010: real time    0.0011
    --------------------------------------------
      LOOP:  cpu time   15.4906: real time   15.5343

 eigenvalue-minimisations  :  2640
 total energy-change (2. order) : 0.1038296E+04  (-0.6942638E+04)
 number of electron     184.0000000 magnetization 
 augmentation part      184.0000000 magnetization 

 DIPCOR: dipole corrections for dipol
 direction  3 min pos   126,
 dipolmoment           0.000000      0.000000      0.000335 electrons x Angstroem
 Tr[quadrupol]     -1918.624077

 energy correction for charged system         0.000000 eV
 dipol+quadrupol energy correction           -0.000000 eV
 added-field ion interaction          0.000147 eV  (added to PSCEN)


 Free energy of the ion-electron system (eV)
  ---------------------------------------------------
  alpha Z        PSCENC =       195.01362918
  Ewald energy   TEWEN  =     11936.77092550
  -Hartree energ DENC   =    -25715.47971420
  -exchange      EXHF   =         0.00000000
  -V(xc)+E(xc)   XCENC  =      -921.45995095
  PAW double counting   =     13661.59498581   -12191.00304961
  entropy T*S    EENTRO =        -0.00459076
  eigenvalues    EBANDS =       686.57201467
  atomic energy  EATOM  =     13386.29214936
  Solvation  Ediel_sol  =         0.00000000
  ---------------------------------------------------
  free energy    TOTEN  =      1038.29639900 eV

  energy without entropy =     1038.30098976  energy(sigma->0) =     1038.29869438


--------------------------------------------------------------------------------------------------------




--------------------------------------- Iteration      1(   2)  ---------------------------------------


     EDDAV:  cpu time   17.0074: real time   17.0531
       DOS:  cpu time    0.0010: real time    0.0011
    --------------------------------------------
      LOOP:  cpu time   17.0084: real time   17.0542

 eigenvalue-minimisations  :  3024
 total energy-change (2. order) :-0.1075516E+04  (-0.9990976E+03)
 number of electron     184.0000000 magnetization 
 augmentation part      184.0000000 magnetization 

 DIPCOR: dipole corrections for dipol
 direction  3 min pos   126,
 dipolmoment           0.000000      0.000000      0.000335 electrons x Angstroem
 Tr[quadrupol]     -1918.624077

 energy correction for charged system         0.000000 eV
 dipol+quadrupol energy correction           -0.000000 eV
 added-field ion interaction          0.000147 eV  (added to PSCEN)


 Free energy of the ion-electron system (eV)
  ---------------------------------------------------
  alpha Z        PSCENC =       195.01362918
  Ewald energy   TEWEN  =     11936.77092550
  -Hartree energ DENC   =    -25715.47971420
  -exchange      EXHF   =         0.00000000
  -V(xc)+E(xc)   XCENC  =      -921.45995095
  PAW double counting   =     13661.59498581   -12191.00304961
  entropy T*S    EENTRO =        -0.00551663
  eigenvalues    EBANDS =      -388.94259344
  atomic energy  EATOM  =     13386.29214936
  Solvation  Ediel_sol  =         0.00000000
  ---------------------------------------------------
  free energy    TOTEN  =       -37.21913498 eV

  energy without entropy =      -37.21361836  energy(sigma->0) =      -37.21637667


--------------------------------------------------------------------------------------------------------




--------------------------------------- Iteration      1(   3)  ---------------------------------------


     EDDAV:  cpu time   17.4743: real time   17.5227
       DOS:  cpu time    0.0010: real time    0.0011
    --------------------------------------------
      LOOP:  cpu time   17.4753: real time   17.5238

 eigenvalue-minimisations  :  3120
 total energy-change (2. order) :-0.7171046E+02  (-0.6794664E+02)
 number of electron     184.0000000 magnetization 
 augmentation part      184.0000000 magnetization 

 DIPCOR: dipole corrections for dipol
 direction  3 min pos   126,
 dipolmoment           0.000000      0.000000      0.000335 electrons x Angstroem
 Tr[quadrupol]     -1918.624077

 energy correction for charged system         0.000000 eV
 dipol+quadrupol energy correction           -0.000000 eV
 added-field ion interaction          0.000147 eV  (added to PSCEN)


 Free energy of the ion-electron system (eV)
  ---------------------------------------------------
  alpha Z        PSCENC =       195.01362918
  Ewald energy   TEWEN  =     11936.77092550
  -Hartree energ DENC   =    -25715.47971420
  -exchange      EXHF   =         0.00000000
  -V(xc)+E(xc)   XCENC  =      -921.45995095
  PAW double counting   =     13661.59498581   -12191.00304961
  entropy T*S    EENTRO =        -0.00520994
  eigenvalues    EBANDS =      -460.65336493
  atomic energy  EATOM  =     13386.29214936
  Solvation  Ediel_sol  =         0.00000000
  ---------------------------------------------------
  free energy    TOTEN  =      -108.92959979 eV

  energy without entropy =     -108.92438985  energy(sigma->0) =     -108.92699482


--------------------------------------------------------------------------------------------------------




--------------------------------------- Iteration      1(   4)  ---------------------------------------


     EDDAV:  cpu time   17.6903: real time   17.7374
       DOS:  cpu time    0.0010: real time    0.0011
    --------------------------------------------
      LOOP:  cpu time   17.6913: real time   17.7384

 eigenvalue-minimisations  :  3168
 total energy-change (2. order) :-0.2042948E+01  (-0.2030116E+01)
 number of electron     184.0000000 magnetization 
 augmentation part      184.0000000 magnetization 

 DIPCOR: dipole corrections for dipol
 direction  3 min pos   126,
 dipolmoment           0.000000      0.000000      0.000335 electrons x Angstroem
 Tr[quadrupol]     -1918.624077

 energy correction for charged system         0.000000 eV
 dipol+quadrupol energy correction           -0.000000 eV
 added-field ion interaction          0.000147 eV  (added to PSCEN)


 Free energy of the ion-electron system (eV)
  ---------------------------------------------------
  alpha Z        PSCENC =       195.01362918
  Ewald energy   TEWEN  =     11936.77092550
  -Hartree energ DENC   =    -25715.47971420
  -exchange      EXHF   =         0.00000000
  -V(xc)+E(xc)   XCENC  =      -921.45995095
  PAW double counting   =     13661.59498581   -12191.00304961
  entropy T*S    EENTRO =        -0.00500925
  eigenvalues    EBANDS =      -462.69651391
  atomic energy  EATOM  =     13386.29214936
  Solvation  Ediel_sol  =         0.00000000
  ---------------------------------------------------
  free energy    TOTEN  =      -110.97254807 eV

  energy without entropy =     -110.96753882  energy(sigma->0) =     -110.97004345


--------------------------------------------------------------------------------------------------------




--------------------------------------- Iteration      1(   5)  ---------------------------------------


     EDDAV:  cpu time   17.9923: real time   18.0406
       DOS:  cpu time    0.0010: real time    0.0011
    --------------------------------------------
      LOOP:  cpu time   17.9933: real time   18.0417

 eigenvalue-minimisations  :  3240
 total energy-change (2. order) :-0.6418212E-01  (-0.6414967E-01)
 number of electron     184.0000000 magnetization 
 augmentation part      184.0000000 magnetization 

 DIPCOR: dipole corrections for dipol
 direction  3 min pos   126,
 dipolmoment           0.000000      0.000000      0.000335 electrons x Angstroem
 Tr[quadrupol]     -1918.624077

 energy correction for charged system         0.000000 eV
 dipol+quadrupol energy correction           -0.000000 eV
 added-field ion interaction          0.000147 eV  (added to PSCEN)


 Free energy of the ion-electron system (eV)
  ---------------------------------------------------
  alpha Z        PSCENC =       195.01362918
  Ewald energy   TEWEN  =     11936.77092550
  -Hartree energ DENC   =    -25715.47971420
  -exchange      EXHF   =         0.00000000
  -V(xc)+E(xc)   XCENC  =      -921.45995095
  PAW double counting   =     13661.59498581   -12191.00304961
  entropy T*S    EENTRO =        -0.00501241
  eigenvalues    EBANDS =      -462.76069287
  atomic energy  EATOM  =     13386.29214936
  Solvation  Ediel_sol  =         0.00000000
  ---------------------------------------------------
  free energy    TOTEN  =      -111.03673019 eV

  energy without entropy =     -111.03171778  energy(sigma->0) =     -111.03422398


--------------------------------------------------------------------------------------------------------




--------------------------------------- Iteration      1(   6)  ---------------------------------------


     EDDAV:  cpu time   19.1491: real time   19.1999
       DOS:  cpu time    0.0010: real time    0.0011
    --------------------------------------------
      LOOP:  cpu time   19.1501: real time   19.2010

 eigenvalue-minimisations  :  3492
 total energy-change (2. order) :-0.3363335E-02  (-0.3362820E-02)
 number of electron     184.0000000 magnetization 
 augmentation part      184.0000000 magnetization 

 DIPCOR: dipole corrections for dipol
 direction  3 min pos   126,
 dipolmoment           0.000000      0.000000      0.000335 electrons x Angstroem
 Tr[quadrupol]     -1918.624077

 energy correction for charged system         0.000000 eV
 dipol+quadrupol energy correction           -0.000000 eV
 added-field ion interaction          0.000147 eV  (added to PSCEN)


 Free energy of the ion-electron system (eV)
  ---------------------------------------------------
  alpha Z        PSCENC =       195.01362918
  Ewald energy   TEWEN  =     11936.77092550
  -Hartree energ DENC   =    -25715.47971420
  -exchange      EXHF   =         0.00000000
  -V(xc)+E(xc)   XCENC  =      -921.45995095
  PAW double counting   =     13661.59498581   -12191.00304961
  entropy T*S    EENTRO =        -0.00501270
  eigenvalues    EBANDS =      -462.76405591
  atomic energy  EATOM  =     13386.29214936
  Solvation  Ediel_sol  =         0.00000000
  ---------------------------------------------------
  free energy    TOTEN  =      -111.04009352 eV

  energy without entropy =     -111.03508083  energy(sigma->0) =     -111.03758717


--------------------------------------------------------------------------------------------------------




--------------------------------------- Iteration      1(   7)  ---------------------------------------


     EDDAV:  cpu time   18.0313: real time   18.0811
       DOS:  cpu time    0.0010: real time    0.0011
    CHARGE:  cpu time    0.7039: real time    0.7054
    MIXING:  cpu time    0.0050: real time    0.0047
    --------------------------------------------
      LOOP:  cpu time   18.7412: real time   18.7923

 eigenvalue-minimisations  :  3252
 total energy-change (2. order) :-0.1031314E-03  (-0.1031251E-03)
 number of electron     183.9999859 magnetization 
 augmentation part       62.0094381 magnetization 

 DIPCOR: dipole corrections for dipol
 direction  3 min pos   126,
 dipolmoment           0.000000      0.000000      0.000335 electrons x Angstroem
 Tr[quadrupol]     -1918.624077

 energy correction for charged system         0.000000 eV
 dipol+quadrupol energy correction           -0.000000 eV
 added-field ion interaction          0.000147 eV  (added to PSCEN)


 Broyden mixing:
  rms(total) = 0.18440E+01    rms(broyden)= 0.18440E+01
  rms(prec ) = 0.19733E+01
  weight for this iteration     100.00

 Free energy of the ion-electron system (eV)
  ---------------------------------------------------
  alpha Z        PSCENC =       195.01362918
  Ewald energy   TEWEN  =     11936.77092550
  -Hartree energ DENC   =    -25715.47971420
  -exchange      EXHF   =         0.00000000
  -V(xc)+E(xc)   XCENC  =      -921.45995095
  PAW double counting   =     13661.59498581   -12191.00304961
  entropy T*S    EENTRO =        -0.00501277
  eigenvalues    EBANDS =      -462.76415897
  atomic energy  EATOM  =     13386.29214936
  Solvation  Ediel_sol  =         0.00000000
  ---------------------------------------------------
  free energy    TOTEN  =      -111.04019665 eV

  energy without entropy =     -111.03518389  energy(sigma->0) =     -111.03769027


--------------------------------------------------------------------------------------------------------




--------------------------------------- Iteration      1(   8)  ---------------------------------------


    POTLOK:  cpu time    0.1600: real time    0.1607
    SETDIJ:  cpu time    0.0150: real time    0.0150
    EDDIAG:  cpu time    2.6676: real time    2.6754
  RMM-DIIS:  cpu time    9.2566: real time    9.2807
    ORTHCH:  cpu time    0.5509: real time    0.5527
       DOS:  cpu time    0.0010: real time    0.0011
    CHARGE:  cpu time    0.6989: real time    0.7004
    MIXING:  cpu time    0.0050: real time    0.0046
    --------------------------------------------
      LOOP:  cpu time   13.3550: real time   13.3905

 eigenvalue-minimisations  :  2652
 total energy-change (2. order) : 0.4653615E+00  (-0.5743466E-02)
 number of electron     183.9999859 magnetization 
 augmentation part       62.1606312 magnetization 

 DIPCOR: dipole corrections for dipol
 direction  3 min pos   126,
 dipolmoment           0.000000      0.000000      0.000164 electrons x Angstroem
 Tr[quadrupol]     -1918.999307

 energy correction for charged system         0.000000 eV
 dipol+quadrupol energy correction           -0.000000 eV
 added-field ion interaction          0.000072 eV  (added to PSCEN)


 Broyden mixing:
  rms(total) = 0.16534E+01    rms(broyden)= 0.16534E+01
  rms(prec ) = 0.17798E+01
  weight for this iteration     100.00

 eigenvalues of (default mixing * dielectric matrix)
  average eigenvalue GAMMA=   9.2554
  9.2554

 Free energy of the ion-electron system (eV)
  ---------------------------------------------------
  alpha Z        PSCENC =       195.01355455
  Ewald energy   TEWEN  =     11936.77092550
  -Hartree energ DENC   =    -25716.39008599
  -exchange      EXHF   =         0.00000000
  -V(xc)+E(xc)   XCENC  =      -921.50784699
  PAW double counting   =     13928.43181571   -12460.41449046
  entropy T*S    EENTRO =        -0.00484314
  eigenvalues    EBANDS =      -458.76601369
  atomic energy  EATOM  =     13386.29214936
  Solvation  Ediel_sol  =         0.00000000
  ---------------------------------------------------
  free energy    TOTEN  =      -110.57483513 eV

  energy without entropy =     -110.56999200  energy(sigma->0) =     -110.57241357


--------------------------------------------------------------------------------------------------------




--------------------------------------- Iteration      1(   9)  ---------------------------------------


    POTLOK:  cpu time    0.1550: real time    0.1565
    SETDIJ:  cpu time    0.0150: real time    0.0149
    EDDIAG:  cpu time    2.6696: real time    2.6779
  RMM-DIIS:  cpu time    9.2436: real time    9.2678
    ORTHCH:  cpu time    0.5509: real time    0.5518
       DOS:  cpu time    0.0010: real time    0.0011
    CHARGE:  cpu time    0.6969: real time    0.6983
    MIXING:  cpu time    0.0040: real time    0.0049
    --------------------------------------------
      LOOP:  cpu time   13.3370: real time   13.3732

 eigenvalue-minimisations  :  2651
 total energy-change (2. order) : 0.2638875E+01  (-0.4113547E+00)
 number of electron     183.9999856 magnetization 
 augmentation part       63.2938980 magnetization 

 DIPCOR: dipole corrections for dipol
 direction  3 min pos   128,
 dipolmoment           0.000000      0.000000     -0.011536 electrons x Angstroem
 Tr[quadrupol]     -1922.415964

 energy correction for charged system         0.000000 eV
 dipol+quadrupol energy correction           -0.000012 eV
 added-field ion interaction         -0.076450 eV  (added to PSCEN)


 Broyden mixing:
  rms(total) = 0.31050E+00    rms(broyden)= 0.31049E+00
  rms(prec ) = 0.45426E+00
  weight for this iteration     100.00

 eigenvalues of (default mixing * dielectric matrix)
  average eigenvalue GAMMA=   5.8041
  2.1297  9.4785

 Free energy of the ion-electron system (eV)
  ---------------------------------------------------
  alpha Z        PSCENC =       194.93701997
  Ewald energy   TEWEN  =     11936.77092550
  -Hartree energ DENC   =    -25730.95599040
  -exchange      EXHF   =         0.00000000
  -V(xc)+E(xc)   XCENC  =      -921.65993203
  PAW double counting   =     16953.56538830   -15506.59922827
  entropy T*S    EENTRO =        -0.00624095
  eigenvalues    EBANDS =      -420.28005139
  atomic energy  EATOM  =     13386.29214936
  Solvation  Ediel_sol  =         0.00000000
  ---------------------------------------------------
  free energy    TOTEN  =      -107.93595990 eV

  energy without entropy =     -107.92971895  energy(sigma->0) =     -107.93283943


--------------------------------------------------------------------------------------------------------




--------------------------------------- Iteration      1(  10)  ---------------------------------------


    POTLOK:  cpu time    0.1560: real time    0.1555
    SETDIJ:  cpu time    0.0140: real time    0.0149
    EDDIAG:  cpu time    2.6716: real time    2.6791
  RMM-DIIS:  cpu time    9.0276: real time    9.0517
    ORTHCH:  cpu time    0.5499: real time    0.5506
       DOS:  cpu time    0.0010: real time    0.0011
    CHARGE:  cpu time    0.7079: real time    0.7095
    MIXING:  cpu time    0.0040: real time    0.0049
    --------------------------------------------
      LOOP:  cpu time   13.1310: real time   13.1672

 eigenvalue-minimisations  :  2651
 total energy-change (2. order) : 0.3272500E+00  (-0.2924568E-01)
 number of electron     183.9999856 magnetization 
 augmentation part       63.1760057 magnetization 

 DIPCOR: dipole corrections for dipol
 direction  3 min pos   125,
 dipolmoment           0.000000      0.000000      0.011025 electrons x Angstroem
 Tr[quadrupol]     -1923.214286

 energy correction for charged system         0.000000 eV
 dipol+quadrupol energy correction           -0.000011 eV
 added-field ion interaction         -0.029295 eV  (added to PSCEN)


 Broyden mixing:
  rms(total) = 0.25000E+00    rms(broyden)= 0.25000E+00
  rms(prec ) = 0.35812E+00
  weight for this iteration     100.00

 eigenvalues of (default mixing * dielectric matrix)
  average eigenvalue GAMMA=   5.8146
  1.0553  8.1943  8.1943

 Free energy of the ion-electron system (eV)
  ---------------------------------------------------
  alpha Z        PSCENC =       194.98417662
  Ewald energy   TEWEN  =     11936.77092550
  -Hartree energ DENC   =    -25749.26024221
  -exchange      EXHF   =         0.00000000
  -V(xc)+E(xc)   XCENC  =      -921.26173347
  PAW double counting   =     17156.15361625   -15709.22504006
  entropy T*S    EENTRO =        -0.00584175
  eigenvalues    EBANDS =      -402.05672016
  atomic energy  EATOM  =     13386.29214936
  Solvation  Ediel_sol  =         0.00000000
  ---------------------------------------------------
  free energy    TOTEN  =      -107.60870992 eV

  energy without entropy =     -107.60286817  energy(sigma->0) =     -107.60578905


--------------------------------------------------------------------------------------------------------




--------------------------------------- Iteration      1(  11)  ---------------------------------------


    POTLOK:  cpu time    0.1560: real time    0.1561
    SETDIJ:  cpu time    0.0150: real time    0.0148
    EDDIAG:  cpu time    2.6776: real time    2.6858
  RMM-DIIS:  cpu time    9.1676: real time    9.1909
    ORTHCH:  cpu time    0.5569: real time    0.5591
       DOS:  cpu time    0.0020: real time    0.0011
    CHARGE:  cpu time    0.6969: real time    0.6988
    MIXING:  cpu time    0.0050: real time    0.0050
    --------------------------------------------
      LOOP:  cpu time   13.2770: real time   13.3116

 eigenvalue-minimisations  :  2652
 total energy-change (2. order) : 0.3154084E+00  (-0.4319012E-01)
 number of electron     183.9999857 magnetization 
 augmentation part       62.7359789 magnetization 

 DIPCOR: dipole corrections for dipol
 direction  3 min pos   123,
 dipolmoment           0.000000      0.000000      0.037115 electrons x Angstroem
 Tr[quadrupol]     -1924.340801

 energy correction for charged system         0.000000 eV
 dipol+quadrupol energy correction           -0.000128 eV
 added-field ion interaction         -0.328340 eV  (added to PSCEN)


 Broyden mixing:
  rms(total) = 0.18767E+00    rms(broyden)= 0.18766E+00
  rms(prec ) = 0.24955E+00
  weight for this iteration     100.00

 eigenvalues of (default mixing * dielectric matrix)
  average eigenvalue GAMMA=   4.7833
  7.8373  7.3616  0.9571  2.9773

 Free energy of the ion-electron system (eV)
  ---------------------------------------------------
  alpha Z        PSCENC =       194.68501488
  Ewald energy   TEWEN  =     11936.77092550
  -Hartree energ DENC   =    -25782.70849503
  -exchange      EXHF   =         0.00000000
  -V(xc)+E(xc)   XCENC  =      -920.46828907
  PAW double counting   =     17038.68233722   -15589.14461876
  entropy T*S    EENTRO =        -0.00529659
  eigenvalues    EBANDS =      -371.39702904
  atomic energy  EATOM  =     13386.29214936
  Solvation  Ediel_sol  =         0.00000000
  ---------------------------------------------------
  free energy    TOTEN  =      -107.29330152 eV

  energy without entropy =     -107.28800493  energy(sigma->0) =     -107.29065322


--------------------------------------------------------------------------------------------------------




--------------------------------------- Iteration      1(  12)  ---------------------------------------


    POTLOK:  cpu time    0.1630: real time    0.1653
    SETDIJ:  cpu time    0.0150: real time    0.0148
    EDDIAG:  cpu time    2.6616: real time    2.6695
  RMM-DIIS:  cpu time    9.0716: real time    9.0956
    ORTHCH:  cpu time    0.5569: real time    0.5582
       DOS:  cpu time    0.0020: real time    0.0011
    CHARGE:  cpu time    0.6989: real time    0.7010
    MIXING:  cpu time    0.0050: real time    0.0052
    --------------------------------------------
      LOOP:  cpu time   13.1740: real time   13.2108

 eigenvalue-minimisations  :  2651
 total energy-change (2. order) : 0.6291819E-01  (-0.4274307E-02)
 number of electron     183.9999857 magnetization 
 augmentation part       62.7049273 magnetization 

 DIPCOR: dipole corrections for dipol
 direction  3 min pos   127,
 dipolmoment           0.000000      0.000000     -0.021043 electrons x Angstroem
 Tr[quadrupol]     -1924.658201

 energy correction for charged system         0.000000 eV
 dipol+quadrupol energy correction           -0.000041 eV
 added-field ion interaction         -0.074331 eV  (added to PSCEN)


 Broyden mixing:
  rms(total) = 0.17269E+00    rms(broyden)= 0.17269E+00
  rms(prec ) = 0.22174E+00
  weight for this iteration     100.00

 eigenvalues of (default mixing * dielectric matrix)
  average eigenvalue GAMMA=   5.0204
  8.6719  8.6719  5.7325  1.0127  1.0127

 Free energy of the ion-electron system (eV)
  ---------------------------------------------------
  alpha Z        PSCENC =       194.93911038
  Ewald energy   TEWEN  =     11936.77092550
  -Hartree energ DENC   =    -25788.36405768
  -exchange      EXHF   =         0.00000000
  -V(xc)+E(xc)   XCENC  =      -920.33422236
  PAW double counting   =     17031.62298206   -15582.06807984
  entropy T*S    EENTRO =        -0.00540763
  eigenvalues    EBANDS =      -366.08378311
  atomic energy  EATOM  =     13386.29214936
  Solvation  Ediel_sol  =         0.00000000
  ---------------------------------------------------
  free energy    TOTEN  =      -107.23038333 eV

  energy without entropy =     -107.22497570  energy(sigma->0) =     -107.22767952


--------------------------------------------------------------------------------------------------------




--------------------------------------- Iteration      1(  13)  ---------------------------------------


    POTLOK:  cpu time    0.1590: real time    0.1598
    SETDIJ:  cpu time    0.0150: real time    0.0149
    EDDIAG:  cpu time    2.6736: real time    2.6811
  RMM-DIIS:  cpu time    9.2066: real time    9.2287
    ORTHCH:  cpu time    0.5589: real time    0.5607
       DOS:  cpu time    0.0010: real time    0.0011
    CHARGE:  cpu time    0.7049: real time    0.7064
    MIXING:  cpu time    0.0050: real time    0.0054
    --------------------------------------------
      LOOP:  cpu time   13.3250: real time   13.3580

 eigenvalue-minimisations  :  2664
 total energy-change (2. order) : 0.4247631E-01  (-0.1932413E-02)
 number of electron     183.9999857 magnetization 
 augmentation part       62.6441437 magnetization 

 DIPCOR: dipole corrections for dipol
 direction  3 min pos   129,
 dipolmoment           0.000000      0.000000     -0.042157 electrons x Angstroem
 Tr[quadrupol]     -1924.918051

 energy correction for charged system         0.000000 eV
 dipol+quadrupol energy correction           -0.000165 eV
 added-field ion interaction         -0.409838 eV  (added to PSCEN)


 Broyden mixing:
  rms(total) = 0.15528E+00    rms(broyden)= 0.15528E+00
  rms(prec ) = 0.19836E+00
  weight for this iteration     100.00

 eigenvalues of (default mixing * dielectric matrix)
  average eigenvalue GAMMA=   5.3204
 10.9168 10.9168  6.2433  1.8702  1.0926  0.8824

 Free energy of the ion-electron system (eV)
  ---------------------------------------------------
  alpha Z        PSCENC =       194.60347951
  Ewald energy   TEWEN  =     11936.77092550
  -Hartree energ DENC   =    -25794.69559280
  -exchange      EXHF   =         0.00000000
  -V(xc)+E(xc)   XCENC  =      -920.17171134
  PAW double counting   =     16911.38497728   -15461.14068201
  entropy T*S    EENTRO =        -0.00544104
  eigenvalues    EBANDS =      -360.22601147
  atomic energy  EATOM  =     13386.29214936
  Solvation  Ediel_sol  =         0.00000000
  ---------------------------------------------------
  free energy    TOTEN  =      -107.18790702 eV

  energy without entropy =     -107.18246598  energy(sigma->0) =     -107.18518650


--------------------------------------------------------------------------------------------------------




--------------------------------------- Iteration      1(  14)  ---------------------------------------


    POTLOK:  cpu time    0.1560: real time    0.1570
    SETDIJ:  cpu time    0.0150: real time    0.0150
    EDDIAG:  cpu time    2.6726: real time    2.6797
  RMM-DIIS:  cpu time    9.2566: real time    9.2797
    ORTHCH:  cpu time    0.5519: real time    0.5533
       DOS:  cpu time    0.0010: real time    0.0011
    CHARGE:  cpu time    0.7029: real time    0.7046
    MIXING:  cpu time    0.0060: real time    0.0059
    --------------------------------------------
      LOOP:  cpu time   13.3610: real time   13.3962

 eigenvalue-minimisations  :  2656
 total energy-change (2. order) : 0.8250733E-01  (-0.1231846E-01)
 number of electron     183.9999857 magnetization 
 augmentation part       62.6343934 magnetization 

 DIPCOR: dipole corrections for dipol
 direction  3 min pos   125,
 dipolmoment           0.000000      0.000000      0.060276 electrons x Angstroem
 Tr[quadrupol]     -1925.785497

 energy correction for charged system         0.000000 eV
 dipol+quadrupol energy correction           -0.000337 eV
 added-field ion interaction         -0.160162 eV  (added to PSCEN)


 Broyden mixing:
  rms(total) = 0.11298E+00    rms(broyden)= 0.11298E+00
  rms(prec ) = 0.17447E+00
  weight for this iteration     100.00

 eigenvalues of (default mixing * dielectric matrix)
  average eigenvalue GAMMA=   5.4884
 15.0525 10.7217  6.8374  1.0036  1.0036  1.9001  1.9001

 Free energy of the ion-electron system (eV)
  ---------------------------------------------------
  alpha Z        PSCENC =       194.85298398
  Ewald energy   TEWEN  =     11936.77092550
  -Hartree energ DENC   =    -25809.80704696
  -exchange      EXHF   =         0.00000000
  -V(xc)+E(xc)   XCENC  =      -919.78856057
  PAW double counting   =     16733.87268462   -15283.22419169
  entropy T*S    EENTRO =        -0.00546468
  eigenvalues    EBANDS =      -346.06887925
  atomic energy  EATOM  =     13386.29214936
  Solvation  Ediel_sol  =         0.00000000
  ---------------------------------------------------
  free energy    TOTEN  =      -107.10539969 eV

  energy without entropy =     -107.09993502  energy(sigma->0) =     -107.10266736


--------------------------------------------------------------------------------------------------------




--------------------------------------- Iteration      1(  15)  ---------------------------------------


    POTLOK:  cpu time    0.1550: real time    0.1555
    SETDIJ:  cpu time    0.0150: real time    0.0150
    EDDIAG:  cpu time    2.6776: real time    2.6857
  RMM-DIIS:  cpu time    9.2186: real time    9.2408
    ORTHCH:  cpu time    0.5519: real time    0.5529
       DOS:  cpu time    0.0010: real time    0.0012
    CHARGE:  cpu time    0.7079: real time    0.7099
    MIXING:  cpu time    0.0060: real time    0.0060
    --------------------------------------------
      LOOP:  cpu time   13.3330: real time   13.3669

 eigenvalue-minimisations  :  2657
 total energy-change (2. order) : 0.2670024E-01  (-0.4272303E-02)
 number of electron     183.9999857 magnetization 
 augmentation part       62.6788350 magnetization 

 DIPCOR: dipole corrections for dipol
 direction  3 min pos   128,
 dipolmoment           0.000000      0.000000     -0.049822 electrons x Angstroem
 Tr[quadrupol]     -1926.028216

 energy correction for charged system         0.000000 eV
 dipol+quadrupol energy correction           -0.000230 eV
 added-field ion interaction         -0.330172 eV  (added to PSCEN)


 Broyden mixing:
  rms(total) = 0.93604E-01    rms(broyden)= 0.93601E-01
  rms(prec ) = 0.13096E+00
  weight for this iteration     100.00

 eigenvalues of (default mixing * dielectric matrix)
  average eigenvalue GAMMA=   5.3706
 17.7640  9.7326  5.2365  5.2365  2.0053  1.0575  1.0575  0.8751

 Free energy of the ion-electron system (eV)
  ---------------------------------------------------
  alpha Z        PSCENC =       194.68308091
  Ewald energy   TEWEN  =     11936.77092550
  -Hartree energ DENC   =    -25812.26121628
  -exchange      EXHF   =         0.00000000
  -V(xc)+E(xc)   XCENC  =      -919.73960200
  PAW double counting   =     16814.73213464   -15364.77118007
  entropy T*S    EENTRO =        -0.00562832
  eigenvalues    EBANDS =      -342.77936320
  atomic energy  EATOM  =     13386.29214936
  Solvation  Ediel_sol  =         0.00000000
  ---------------------------------------------------
  free energy    TOTEN  =      -107.07869946 eV

  energy without entropy =     -107.07307114  energy(sigma->0) =     -107.07588530


--------------------------------------------------------------------------------------------------------




--------------------------------------- Iteration      1(  16)  ---------------------------------------


    POTLOK:  cpu time    0.1560: real time    0.1562
    SETDIJ:  cpu time    0.0140: real time    0.0147
    EDDIAG:  cpu time    2.6786: real time    2.6860
  RMM-DIIS:  cpu time    9.1156: real time    9.1381
    ORTHCH:  cpu time    0.5529: real time    0.5536
       DOS:  cpu time    0.0010: real time    0.0011
    CHARGE:  cpu time    0.7059: real time    0.7076
    MIXING:  cpu time    0.0060: real time    0.0062
    --------------------------------------------
      LOOP:  cpu time   13.2300: real time   13.2636

 eigenvalue-minimisations  :  2657
 total energy-change (2. order) :-0.2416311E-01  (-0.3148732E-02)
 number of electron     183.9999857 magnetization 
 augmentation part       62.6012818 magnetization 

 DIPCOR: dipole corrections for dipol
 direction  3 min pos   130,
 dipolmoment           0.000000      0.000000     -0.115470 electrons x Angstroem
 Tr[quadrupol]     -1926.291094

 energy correction for charged system         0.000000 eV
 dipol+quadrupol energy correction           -0.001236 eV
 added-field ion interaction         -1.479908 eV  (added to PSCEN)


 Broyden mixing:
  rms(total) = 0.12116E+00    rms(broyden)= 0.12115E+00
  rms(prec ) = 0.20435E+00
  weight for this iteration     100.00

 eigenvalues of (default mixing * dielectric matrix)
  average eigenvalue GAMMA=   5.3499
 18.7005 10.6771  8.1124  4.8032  1.3505  1.3505  1.1832  0.9859  0.9859

 Free energy of the ion-electron system (eV)
  ---------------------------------------------------
  alpha Z        PSCENC =       193.53233860
  Ewald energy   TEWEN  =     11936.77092550
  -Hartree energ DENC   =    -25819.23553304
  -exchange      EXHF   =         0.00000000
  -V(xc)+E(xc)   XCENC  =      -919.58433504
  PAW double counting   =     16807.87463200   -15357.84085522
  entropy T*S    EENTRO =        -0.00529669
  eigenvalues    EBANDS =      -334.90688803
  atomic energy  EATOM  =     13386.29214936
  Solvation  Ediel_sol  =         0.00000000
  ---------------------------------------------------
  free energy    TOTEN  =      -107.10286257 eV

  energy without entropy =     -107.09756588  energy(sigma->0) =     -107.10021422


--------------------------------------------------------------------------------------------------------




--------------------------------------- Iteration      1(  17)  ---------------------------------------


    POTLOK:  cpu time    0.1560: real time    0.1583
    SETDIJ:  cpu time    0.0150: real time    0.0149
    EDDIAG:  cpu time    2.6736: real time    2.6811
  RMM-DIIS:  cpu time    9.2506: real time    9.2732
    ORTHCH:  cpu time    0.5589: real time    0.5599
       DOS:  cpu time    0.0010: real time    0.0011
    CHARGE:  cpu time    0.7079: real time    0.7099
    MIXING:  cpu time    0.0070: real time    0.0068
    --------------------------------------------
      LOOP:  cpu time   13.3700: real time   13.4053

 eigenvalue-minimisations  :  2662
 total energy-change (2. order) : 0.4819357E-01  (-0.4437848E-02)
 number of electron     183.9999857 magnetization 
 augmentation part       62.6663399 magnetization 

 DIPCOR: dipole corrections for dipol
 direction  3 min pos   126,
 dipolmoment           0.000000      0.000000      0.016672 electrons x Angstroem
 Tr[quadrupol]     -1926.569954

 energy correction for charged system         0.000000 eV
 dipol+quadrupol energy correction           -0.000026 eV
 added-field ion interaction          0.007295 eV  (added to PSCEN)


 Broyden mixing:
  rms(total) = 0.46630E-01    rms(broyden)= 0.46625E-01
  rms(prec ) = 0.74269E-01
  weight for this iteration     100.00

 eigenvalues of (default mixing * dielectric matrix)
  average eigenvalue GAMMA=   5.2124
 18.6821 12.0189  8.6828  4.2609  2.8430  1.3807  1.3807  0.9857  0.9857  0.9035

 Free energy of the ion-electron system (eV)
  ---------------------------------------------------
  alpha Z        PSCENC =       195.02075220
  Ewald energy   TEWEN  =     11936.77092550
  -Hartree energ DENC   =    -25821.32764695
  -exchange      EXHF   =         0.00000000
  -V(xc)+E(xc)   XCENC  =      -919.54305610
  PAW double counting   =     16738.23308418   -15288.66383162
  entropy T*S    EENTRO =        -0.00549373
  eigenvalues    EBANDS =      -333.83155185
  atomic energy  EATOM  =     13386.29214936
  Solvation  Ediel_sol  =         0.00000000
  ---------------------------------------------------
  free energy    TOTEN  =      -107.05466900 eV

  energy without entropy =     -107.04917528  energy(sigma->0) =     -107.05192214


--------------------------------------------------------------------------------------------------------




--------------------------------------- Iteration      1(  18)  ---------------------------------------


    POTLOK:  cpu time    0.1560: real time    0.1564
    SETDIJ:  cpu time    0.0150: real time    0.0149
    EDDIAG:  cpu time    2.6756: real time    2.6832
  RMM-DIIS:  cpu time    9.1616: real time    9.1839
    ORTHCH:  cpu time    0.5589: real time    0.5610
       DOS:  cpu time    0.0010: real time    0.0011
    CHARGE:  cpu time    0.7029: real time    0.7039
    MIXING:  cpu time    0.0070: real time    0.0071
    --------------------------------------------
      LOOP:  cpu time   13.2780: real time   13.3116

 eigenvalue-minimisations  :  2668
 total energy-change (2. order) :-0.1995610E-02  (-0.4797505E-03)
 number of electron     183.9999857 magnetization 
 augmentation part       62.6657244 magnetization 

 DIPCOR: dipole corrections for dipol
 direction  3 min pos   124,
 dipolmoment           0.000000      0.000000      0.050138 electrons x Angstroem
 Tr[quadrupol]     -1926.686962

 energy correction for charged system         0.000000 eV
 dipol+quadrupol energy correction           -0.000233 eV
 added-field ion interaction         -0.288388 eV  (added to PSCEN)


 Broyden mixing:
  rms(total) = 0.49612E-01    rms(broyden)= 0.49612E-01
  rms(prec ) = 0.85538E-01
  weight for this iteration     100.00

 eigenvalues of (default mixing * dielectric matrix)
  average eigenvalue GAMMA=   5.6652
 20.4225 15.0657  9.5884  5.2774  5.2774  1.3832  1.3832  0.9831  0.9663  0.9851
  0.9851

 Free energy of the ion-electron system (eV)
  ---------------------------------------------------
  alpha Z        PSCENC =       194.72486192
  Ewald energy   TEWEN  =     11936.77092550
  -Hartree energ DENC   =    -25823.27424427
  -exchange      EXHF   =         0.00000000
  -V(xc)+E(xc)   XCENC  =      -919.52313441
  PAW double counting   =     16708.42495279   -15258.95722851
  entropy T*S    EENTRO =        -0.00549642
  eigenvalues    EBANDS =      -331.50945058
  atomic energy  EATOM  =     13386.29214936
  Solvation  Ediel_sol  =         0.00000000
  ---------------------------------------------------
  free energy    TOTEN  =      -107.05666461 eV

  energy without entropy =     -107.05116820  energy(sigma->0) =     -107.05391640


--------------------------------------------------------------------------------------------------------




--------------------------------------- Iteration      1(  19)  ---------------------------------------


    POTLOK:  cpu time    0.1620: real time    0.1635
    SETDIJ:  cpu time    0.0150: real time    0.0149
    EDDIAG:  cpu time    2.6756: real time    2.6835
  RMM-DIIS:  cpu time    9.2466: real time    9.2687
    ORTHCH:  cpu time    0.5599: real time    0.5611
       DOS:  cpu time    0.0010: real time    0.0011
    CHARGE:  cpu time    0.6999: real time    0.7017
    MIXING:  cpu time    0.0070: real time    0.0075
    --------------------------------------------
      LOOP:  cpu time   13.3670: real time   13.4020

 eigenvalue-minimisations  :  2649
 total energy-change (2. order) : 0.8955156E-02  (-0.8846631E-03)
 number of electron     183.9999857 magnetization 
 augmentation part       62.6068617 magnetization 

 DIPCOR: dipole corrections for dipol
 direction  3 min pos   123,
 dipolmoment           0.000000      0.000000      0.043899 electrons x Angstroem
 Tr[quadrupol]     -1927.081631

 energy correction for charged system         0.000000 eV
 dipol+quadrupol energy correction           -0.000179 eV
 added-field ion interaction         -0.388352 eV  (added to PSCEN)


 Broyden mixing:
  rms(total) = 0.40936E-01    rms(broyden)= 0.40936E-01
  rms(prec ) = 0.57169E-01
  weight for this iteration     100.00

 eigenvalues of (default mixing * dielectric matrix)
  average eigenvalue GAMMA=   5.2208
 20.2173 14.0470  9.7884  6.0574  4.6756  1.3388  1.3388  0.9672  0.9672  1.0153
  1.1183  1.1183

 Free energy of the ion-electron system (eV)
  ---------------------------------------------------
  alpha Z        PSCENC =       194.62495207
  Ewald energy   TEWEN  =     11936.77092550
  -Hartree energ DENC   =    -25831.08264789
  -exchange      EXHF   =         0.00000000
  -V(xc)+E(xc)   XCENC  =      -919.43805617
  PAW double counting   =     16702.54662575   -15253.30714092
  entropy T*S    EENTRO =        -0.00551302
  eigenvalues    EBANDS =      -323.44900414
  atomic energy  EATOM  =     13386.29214936
  Solvation  Ediel_sol  =         0.00000000
  ---------------------------------------------------
  free energy    TOTEN  =      -107.04770946 eV

  energy without entropy =     -107.04219643  energy(sigma->0) =     -107.04495295


--------------------------------------------------------------------------------------------------------




--------------------------------------- Iteration      1(  20)  ---------------------------------------


    POTLOK:  cpu time    0.1560: real time    0.1563
    SETDIJ:  cpu time    0.0150: real time    0.0148
    EDDIAG:  cpu time    2.6686: real time    2.6768
  RMM-DIIS:  cpu time    9.1606: real time    9.1828
    ORTHCH:  cpu time    0.5599: real time    0.5607
       DOS:  cpu time    0.0010: real time    0.0011
    CHARGE:  cpu time    0.7009: real time    0.7026
    MIXING:  cpu time    0.0080: real time    0.0082
    --------------------------------------------
      LOOP:  cpu time   13.2700: real time   13.3033

 eigenvalue-minimisations  :  2652
 total energy-change (2. order) :-0.2518540E-02  (-0.1214050E-03)
 number of electron     183.9999857 magnetization 
 augmentation part       62.5906095 magnetization 

 DIPCOR: dipole corrections for dipol
 direction  3 min pos   122,
 dipolmoment           0.000000      0.000000      0.062119 electrons x Angstroem
 Tr[quadrupol]     -1927.141717

 energy correction for charged system         0.000000 eV
 dipol+quadrupol energy correction           -0.000358 eV
 added-field ion interaction         -0.741774 eV  (added to PSCEN)


 Broyden mixing:
  rms(total) = 0.39313E-01    rms(broyden)= 0.39313E-01
  rms(prec ) = 0.65071E-01
  weight for this iteration     100.00

 eigenvalues of (default mixing * dielectric matrix)
  average eigenvalue GAMMA=   5.0912
 19.6743 15.4983  9.6070  5.4574  5.4574  2.8894  1.3812  1.3812  1.0368  1.0242
  1.0242  0.9467  0.8079

 Free energy of the ion-electron system (eV)
  ---------------------------------------------------
  alpha Z        PSCENC =       194.27135117
  Ewald energy   TEWEN  =     11936.77092550
  -Hartree energ DENC   =    -25832.39375977
  -exchange      EXHF   =         0.00000000
  -V(xc)+E(xc)   XCENC  =      -919.42060806
  PAW double counting   =     16721.96223638   -15272.72096488
  entropy T*S    EENTRO =        -0.00548706
  eigenvalues    EBANDS =      -321.80607064
  atomic energy  EATOM  =     13386.29214936
  Solvation  Ediel_sol  =         0.00000000
  ---------------------------------------------------
  free energy    TOTEN  =      -107.05022800 eV

  energy without entropy =     -107.04474094  energy(sigma->0) =     -107.04748447


--------------------------------------------------------------------------------------------------------




--------------------------------------- Iteration      1(  21)  ---------------------------------------


    POTLOK:  cpu time    0.1570: real time    0.1575
    SETDIJ:  cpu time    0.0150: real time    0.0151
    EDDIAG:  cpu time    2.6746: real time    2.6822
  RMM-DIIS:  cpu time    9.1066: real time    9.1288
    ORTHCH:  cpu time    0.5589: real time    0.5609
       DOS:  cpu time    0.0010: real time    0.0011
    CHARGE:  cpu time    0.7019: real time    0.7032
    MIXING:  cpu time    0.0090: real time    0.0085
    --------------------------------------------
      LOOP:  cpu time   13.2240: real time   13.2573

 eigenvalue-minimisations  :  2652
 total energy-change (2. order) :-0.4280122E-02  (-0.1334407E-02)
 number of electron     183.9999857 magnetization 
 augmentation part       62.6190002 magnetization 

 DIPCOR: dipole corrections for dipol
 direction  3 min pos   126,
 dipolmoment           0.000000      0.000000     -0.038180 electrons x Angstroem
 Tr[quadrupol]     -1927.431345

 energy correction for charged system         0.000000 eV
 dipol+quadrupol energy correction           -0.000135 eV
 added-field ion interaction         -0.016707 eV  (added to PSCEN)


 Broyden mixing:
  rms(total) = 0.38010E-01    rms(broyden)= 0.38008E-01
  rms(prec ) = 0.78311E-01
  weight for this iteration     100.00

 eigenvalues of (default mixing * dielectric matrix)
  average eigenvalue GAMMA=   6.0250
 22.1145 22.1145 10.4727 10.4727  6.2140  4.2695  1.3702  1.3702  1.3105  0.9914
  0.9914  0.9905  0.9345  0.7333

 Free energy of the ion-electron system (eV)
  ---------------------------------------------------
  alpha Z        PSCENC =       194.99664055
  Ewald energy   TEWEN  =     11936.77092550
  -Hartree energ DENC   =    -25836.26770245
  -exchange      EXHF   =         0.00000000
  -V(xc)+E(xc)   XCENC  =      -919.44107544
  PAW double counting   =     16720.45229226   -15271.18364304
  entropy T*S    EENTRO =        -0.00550449
  eigenvalues    EBANDS =      -318.66859036
  atomic energy  EATOM  =     13386.29214936
  Solvation  Ediel_sol  =         0.00000000
  ---------------------------------------------------
  free energy    TOTEN  =      -107.05450812 eV

  energy without entropy =     -107.04900363  energy(sigma->0) =     -107.05175587


--------------------------------------------------------------------------------------------------------




--------------------------------------- Iteration      1(  22)  ---------------------------------------


    POTLOK:  cpu time    0.1570: real time    0.1590
    SETDIJ:  cpu time    0.0140: real time    0.0147
    EDDIAG:  cpu time    2.6816: real time    2.6885
  RMM-DIIS:  cpu time    9.0436: real time    9.0664
    ORTHCH:  cpu time    0.5579: real time    0.5593
       DOS:  cpu time    0.0020: real time    0.0011
    CHARGE:  cpu time    0.6989: real time    0.7013
    MIXING:  cpu time    0.0090: real time    0.0089
    --------------------------------------------
      LOOP:  cpu time   13.1640: real time   13.1994

 eigenvalue-minimisations  :  2648
 total energy-change (2. order) :-0.3006079E-01  (-0.1442189E-02)
 number of electron     183.9999857 magnetization 
 augmentation part       62.6063284 magnetization 

 DIPCOR: dipole corrections for dipol
 direction  3 min pos   128,
 dipolmoment           0.000000      0.000000     -0.099234 electrons x Angstroem
 Tr[quadrupol]     -1927.941731

 energy correction for charged system         0.000000 eV
 dipol+quadrupol energy correction           -0.000913 eV
 added-field ion interaction         -0.657620 eV  (added to PSCEN)


 Broyden mixing:
  rms(total) = 0.71100E-01    rms(broyden)= 0.71099E-01
  rms(prec ) = 0.16465E+00
  weight for this iteration     100.00

 eigenvalues of (default mixing * dielectric matrix)
  average eigenvalue GAMMA=   6.1889
 29.1875 20.8683 10.2640 10.2640  6.3812  3.9854  3.3991  1.3801  1.3801  0.9675
  0.9675  1.0023  0.9736  0.9736  0.8386

 Free energy of the ion-electron system (eV)
  ---------------------------------------------------
  alpha Z        PSCENC =       194.35494964
  Ewald energy   TEWEN  =     11936.77092550
  -Hartree energ DENC   =    -25845.04474697
  -exchange      EXHF   =         0.00000000
  -V(xc)+E(xc)   XCENC  =      -919.37291173
  PAW double counting   =     16749.01049962   -15299.59970557
  entropy T*S    EENTRO =        -0.00539690
  eigenvalues    EBANDS =      -309.49033185
  atomic energy  EATOM  =     13386.29214936
  Solvation  Ediel_sol  =         0.00000000
  ---------------------------------------------------
  free energy    TOTEN  =      -107.08456891 eV

  energy without entropy =     -107.07917201  energy(sigma->0) =     -107.08187046


--------------------------------------------------------------------------------------------------------




--------------------------------------- Iteration      1(  23)  ---------------------------------------


    POTLOK:  cpu time    0.1580: real time    0.1577
    SETDIJ:  cpu time    0.0150: real time    0.0150
    EDDIAG:  cpu time    2.6746: real time    2.6824
  RMM-DIIS:  cpu time    9.3046: real time    9.3277
    ORTHCH:  cpu time    0.5509: real time    0.5519
       DOS:  cpu time    0.0010: real time    0.0011
    CHARGE:  cpu time    0.7029: real time    0.7051
    MIXING:  cpu time    0.0100: real time    0.0094
    --------------------------------------------
      LOOP:  cpu time   13.4170: real time   13.4504

 eigenvalue-minimisations  :  2660
 total energy-change (2. order) : 0.1141061E-01  (-0.9201286E-04)
 number of electron     183.9999857 magnetization 
 augmentation part       62.6135664 magnetization 

 DIPCOR: dipole corrections for dipol
 direction  3 min pos   129,
 dipolmoment           0.000000      0.000000     -0.091085 electrons x Angstroem
 Tr[quadrupol]     -1928.064668

 energy correction for charged system         0.000000 eV
 dipol+quadrupol energy correction           -0.000769 eV
 added-field ion interaction         -0.885497 eV  (added to PSCEN)


 Broyden mixing:
  rms(total) = 0.59878E-01    rms(broyden)= 0.59878E-01
  rms(prec ) = 0.13879E+00
  weight for this iteration     100.00

 eigenvalues of (default mixing * dielectric matrix)
  average eigenvalue GAMMA=   6.3239
 33.0307 21.0695 10.5991 10.5991  6.7987  4.8006  4.8006  1.3808  1.3808  1.0247
  1.0247  0.9885  0.9885  0.9967  0.9350  0.7644

 Free energy of the ion-electron system (eV)
  ---------------------------------------------------
  alpha Z        PSCENC =       194.12721605
  Ewald energy   TEWEN  =     11936.77092550
  -Hartree energ DENC   =    -25846.59216505
  -exchange      EXHF   =         0.00000000
  -V(xc)+E(xc)   XCENC  =      -919.36413563
  PAW double counting   =     16744.45936472   -15295.05803856
  entropy T*S    EENTRO =        -0.00545870
  eigenvalues    EBANDS =      -307.70301597
  atomic energy  EATOM  =     13386.29214936
  Solvation  Ediel_sol  =         0.00000000
  ---------------------------------------------------
  free energy    TOTEN  =      -107.07315830 eV

  energy without entropy =     -107.06769959  energy(sigma->0) =     -107.07042895


--------------------------------------------------------------------------------------------------------




--------------------------------------- Iteration      1(  24)  ---------------------------------------


    POTLOK:  cpu time    0.1580: real time    0.1592
    SETDIJ:  cpu time    0.0150: real time    0.0149
    EDDIAG:  cpu time    2.6726: real time    2.6809
  RMM-DIIS:  cpu time    9.0246: real time    9.0469
    ORTHCH:  cpu time    0.5519: real time    0.5525
       DOS:  cpu time    0.0010: real time    0.0011
    CHARGE:  cpu time    0.6999: real time    0.7015
    MIXING:  cpu time    0.0100: real time    0.0097
    --------------------------------------------
      LOOP:  cpu time   13.1330: real time   13.1668

 eigenvalue-minimisations  :  2651
 total energy-change (2. order) : 0.2087739E-01  (-0.4786966E-03)
 number of electron     183.9999857 magnetization 
 augmentation part       62.6209483 magnetization 

 DIPCOR: dipole corrections for dipol
 direction  3 min pos   129,
 dipolmoment           0.000000      0.000000     -0.050274 electrons x Angstroem
 Tr[quadrupol]     -1928.220312

 energy correction for charged system         0.000000 eV
 dipol+quadrupol energy correction           -0.000234 eV
 added-field ion interaction         -0.488745 eV  (added to PSCEN)


 Broyden mixing:
  rms(total) = 0.28071E-01    rms(broyden)= 0.28070E-01
  rms(prec ) = 0.63562E-01
  weight for this iteration     100.00

 eigenvalues of (default mixing * dielectric matrix)
  average eigenvalue GAMMA=   6.2765
 35.4453 20.9385 10.5014 10.5014  7.1268  5.4456  4.1848  3.0435  1.3797  1.3797
  1.0323  1.0323  0.9867  0.9867  0.9643  0.9643  0.7879

 Free energy of the ion-electron system (eV)
  ---------------------------------------------------
  alpha Z        PSCENC =       194.52450372
  Ewald energy   TEWEN  =     11936.77092550
  -Hartree energ DENC   =    -25848.26581206
  -exchange      EXHF   =         0.00000000
  -V(xc)+E(xc)   XCENC  =      -919.35634624
  PAW double counting   =     16747.26803135   -15297.83784227
  entropy T*S    EENTRO =        -0.00556564
  eigenvalues    EBANDS =      -306.44232463
  atomic energy  EATOM  =     13386.29214936
  Solvation  Ediel_sol  =         0.00000000
  ---------------------------------------------------
  free energy    TOTEN  =      -107.05228091 eV

  energy without entropy =     -107.04671526  energy(sigma->0) =     -107.04949809


[...]
    EDDIAG:  cpu time    2.6626: real time    2.6706
  RMM-DIIS:  cpu time    9.2026: real time    9.2267
    ORTHCH:  cpu time    0.5519: real time    0.5524
       DOS:  cpu time    0.0010: real time    0.0011
    CHARGE:  cpu time    0.7009: real time    0.7034
    MIXING:  cpu time    0.0050: real time    0.0043
    --------------------------------------------
      LOOP:  cpu time   13.3000: real time   13.3372

 eigenvalue-minimisations  :  2659
 total energy-change (2. order) :-0.6881300E-04  (-0.6982385E-04)
 number of electron     183.9999940 magnetization 
 augmentation part       62.5415918 magnetization 

 DIPCOR: dipole corrections for dipol
 direction  3 min pos   125,
 dipolmoment           0.000000      0.000000     -0.000799 electrons x Angstroem
 Tr[quadrupol]     -1942.162437

 energy correction for charged system         0.000000 eV
 dipol+quadrupol energy correction           -0.000000 eV
 added-field ion interaction          0.001346 eV  (added to PSCEN)


 eigenvalues of (default mixing * dielectric matrix)
  average eigenvalue GAMMA=   1.1553
  1.1553

  free energy =  -0.107340735038E+03  energy without entropy=  -0.107334094605E+03


--------------------------------------------------------------------------------------------------------




--------------------------------------- Iteration     26(   3)  ---------------------------------------


    POTLOK:  cpu time    0.1610: real time    0.1618
    SETDIJ:  cpu time    0.0150: real time    0.0148
    EDDIAG:  cpu time    2.6756: real time    2.6835
  RMM-DIIS:  cpu time    6.0981: real time    6.1140
    ORTHCH:  cpu time    0.5529: real time    0.5544
       DOS:  cpu time    0.0010: real time    0.0011
    CHARGE:  cpu time    0.7039: real time    0.7058
    MIXING:  cpu time    0.0050: real time    0.0045
    --------------------------------------------
      LOOP:  cpu time   10.2124: real time   10.2399

 eigenvalue-minimisations  :  1791
 total energy-change (2. order) :-0.3792797E-05  (-0.4029881E-05)
 number of electron     183.9999940 magnetization 
 augmentation part       62.5416082 magnetization 

 DIPCOR: dipole corrections for dipol
 direction  3 min pos   125,
 dipolmoment           0.000000      0.000000     -0.000790 electrons x Angstroem
 Tr[quadrupol]     -1942.162349

 energy correction for charged system         0.000000 eV
 dipol+quadrupol energy correction           -0.000000 eV
 added-field ion interaction          0.001330 eV  (added to PSCEN)


 eigenvalues of (default mixing * dielectric matrix)
  average eigenvalue GAMMA=   2.3286
  1.3696  3.2876

  free energy =  -0.107340738831E+03  energy without entropy=  -0.107334098733E+03


--------------------------------------------------------------------------------------------------------




--------------------------------------- Iteration     26(   4)  ---------------------------------------


    POTLOK:  cpu time    0.1600: real time    0.1604
    SETDIJ:  cpu time    0.0150: real time    0.0150
    EDDIAG:  cpu time    2.6686: real time    2.6769
  RMM-DIIS:  cpu time    5.0842: real time    5.0976
    ORTHCH:  cpu time    0.5509: real time    0.5518
       DOS:  cpu time    0.0010: real time    0.0011
    CHARGE:  cpu time    0.7059: real time    0.7081
    MIXING:  cpu time    0.0050: real time    0.0048
    --------------------------------------------
      LOOP:  cpu time    9.1906: real time    9.2159

 eigenvalue-minimisations  :  1403
 total energy-change (2. order) : 0.4300946E-06  (-0.6510350E-06)
 number of electron     183.9999940 magnetization 
 augmentation part       62.5416194 magnetization 

 DIPCOR: dipole corrections for dipol
 direction  3 min pos   125,
 dipolmoment           0.000000      0.000000     -0.000762 electrons x Angstroem
 Tr[quadrupol]     -1942.162020

 energy correction for charged system         0.000000 eV
 dipol+quadrupol energy correction           -0.000000 eV
 added-field ion interaction          0.001283 eV  (added to PSCEN)


 eigenvalues of (default mixing * dielectric matrix)
  average eigenvalue GAMMA=   4.4118
 10.8696  0.9700  1.3958

  free energy =  -0.107340738400E+03  energy without entropy=  -0.107334099375E+03


--------------------------------------------------------------------------------------------------------




--------------------------------------- Iteration     26(   5)  ---------------------------------------


    POTLOK:  cpu time    0.1600: real time    0.1609
    SETDIJ:  cpu time    0.0150: real time    0.0149
    EDDIAG:  cpu time    2.6706: real time    2.6783
  RMM-DIIS:  cpu time    5.1722: real time    5.1854
    ORTHCH:  cpu time    0.5529: real time    0.5544
       DOS:  cpu time    0.0010: real time    0.0011
    --------------------------------------------
      LOOP:  cpu time    8.5717: real time    8.5949

 eigenvalue-minimisations  :  1429
 total energy-change (2. order) : 0.7687468E-06  (-0.3028885E-06)
 number of electron     183.9999940 magnetization 
 augmentation part       62.5416194 magnetization 

 DIPCOR: dipole corrections for dipol
 direction  3 min pos   125,
 dipolmoment           0.000000      0.000000     -0.000715 electrons x Angstroem
 Tr[quadrupol]     -1942.161377

 energy correction for charged system         0.000000 eV
 dipol+quadrupol energy correction           -0.000000 eV
 added-field ion interaction          0.001203 eV  (added to PSCEN)


  free energy =  -0.107340737632E+03  energy without entropy=  -0.107334100149E+03


--------------------------------------------------------------------------------------------------------




------------------------ aborting loop because EDIFF is reached ----------------------------------------


    CHARGE:  cpu time    0.7019: real time    0.7036
    FORLOC:  cpu time    0.0230: real time    0.0227
    FORNL :  cpu time    3.1795: real time    3.1883
    STRESS:  cpu time    9.5615: real time    9.5859
    FORCOR:  cpu time    0.1700: real time    0.1706
    FORHAR:  cpu time    0.0540: real time    0.0544
    MIXING:  cpu time    0.0050: real time    0.0048
    OFIELD:  cpu time    0.0000: real time    0.0000

  FORCE on cell =-STRESS in cart. coord.  units (eV):
  Direction    XX          YY          ZZ          XY          YZ          ZX
  --------------------------------------------------------------------------------------
  Alpha Z   195.01348   195.01348   195.01348
  Ewald   20590.61550 20160.64438-28231.12596  -149.40676  -104.67719   109.82788
  Hartree 24219.70769 23947.05343-21733.90609  -145.40676   -51.21655    92.29931
  E(xc)    -941.77934  -941.25388  -942.56278    -0.58572     0.60784     0.57464
  Local  -47636.63404-46943.01836 47121.92496   295.38311   153.02306  -204.52817
  n-local   128.88854   118.86402    98.82191     4.37649    -4.88126    -2.04207
  augment  1122.57923  1129.82858  1140.94900    -1.42438     2.11820     1.01725
  Kinetic  2306.07608  2322.52304  2347.47285    -2.06588     4.77696     2.67482
  Fock        0.00000     0.00000     0.00000     0.00000     0.00000     0.00000
  -------------------------------------------------------------------------------------
  Total     -15.53286   -10.34531    -3.41263     0.87010    -0.24895    -0.17633
  in kB     -25.49904   -16.98306    -5.60225     1.42837    -0.40867    -0.28946
  external pressure =      -16.03 kB  Pullay stress =        0.00 kB



--------------------------------------------------------------------------------------------------------



  FREE ENERGIE OF THE ION-ELECTRON SYSTEM (eV)
  ---------------------------------------------------
  free  energy   TOTEN  =      -107.34073763 eV

  energy  without entropy=     -107.33410015  energy(sigma->0) =     -107.33741889
 
 d Force = 0.1929121E-03[ 0.170E-03, 0.216E-03]  d Energy = 0.2110670E-03-0.182E-04
 d Force =-0.7284997E+00[-0.729E+00,-0.728E+00]  d Ewald  =-0.7284998E+00 0.912E-07


--------------------------------------------------------------------------------------------------------


    POTLOK:  cpu time    0.1760: real time    0.1759


--------------------------------------------------------------------------------------------------------


 Quasi-Newton relaxation of ions (Broydens 2nd method)
  g(Force)  = 0.546E-04   g(Stress)= 0.000E+00

 retain information from N=  2 steps
 eigenvalues of (default step * inverse Hessian matrix)
  average eigenvalue of G=  11.1128
 eigenvalue spectrum of G is 11.1128 11.1128


--------------------------------------------------------------------------------------------------------


    WAVPRE:  cpu time    0.0450: real time    0.0473
    FEWALD:  cpu time    0.0010: real time    0.0008
    ORTHCH:  cpu time    1.5938: real time    1.5978
     LOOP+:  cpu time   72.9989: real time   73.2002


--------------------------------------- Iteration     27(   1)  ---------------------------------------


    POTLOK:  cpu time    0.1630: real time    0.1637
    SETDIJ:  cpu time    0.0140: real time    0.0148
     EDDAV:  cpu time   15.2837: real time   15.3230
       DOS:  cpu time    0.0010: real time    0.0011
    CHARGE:  cpu time    0.7049: real time    0.7070
    MIXING:  cpu time    0.0040: real time    0.0042
    --------------------------------------------
      LOOP:  cpu time   16.1705: real time   16.2139

 eigenvalue-minimisations  :  2640
 total energy-change (2. order) :-0.1429361E-03  (-0.5572277E-02)
 number of electron     183.9999940 magnetization 
 augmentation part       62.5413319 magnetization 

 DIPCOR: dipole corrections for dipol
 direction  3 min pos   125,
 dipolmoment           0.000000      0.000000     -0.000694 electrons x Angstroem
 Tr[quadrupol]     -1942.092445

 energy correction for charged system         0.000000 eV
 dipol+quadrupol energy correction           -0.000000 eV
 added-field ion interaction          0.001165 eV  (added to PSCEN)


  free energy =  -0.107340881336E+03  energy without entropy=  -0.107334217028E+03


--------------------------------------------------------------------------------------------------------




--------------------------------------- Iteration     27(   2)  ---------------------------------------


    POTLOK:  cpu time    0.1610: real time    0.1634
    SETDIJ:  cpu time    0.0150: real time    0.0150
    EDDIAG:  cpu time    2.6746: real time    2.6820
  RMM-DIIS:  cpu time    9.2256: real time    9.2497
    ORTHCH:  cpu time    0.5549: real time    0.5566
       DOS:  cpu time    0.0010: real time    0.0011
    CHARGE:  cpu time    0.7039: real time    0.7062
    MIXING:  cpu time    0.0050: real time    0.0043
    --------------------------------------------
      LOOP:  cpu time   13.3410: real time   13.3783

 eigenvalue-minimisations  :  2660
 total energy-change (2. order) :-0.6725533E-04  (-0.6826164E-04)
 number of electron     183.9999940 magnetization 
 augmentation part       62.5414367 magnetization 

 DIPCOR: dipole corrections for dipol
 direction  3 min pos   125,
 dipolmoment           0.000000      0.000000     -0.000701 electrons x Angstroem
 Tr[quadrupol]     -1942.092437

 energy correction for charged system         0.000000 eV
 dipol+quadrupol energy correction           -0.000000 eV
 added-field ion interaction          0.001176 eV  (added to PSCEN)


 eigenvalues of (default mixing * dielectric matrix)
  average eigenvalue GAMMA=   1.1478
  1.1478

  free energy =  -0.107340948592E+03  energy without entropy=  -0.107334284551E+03


--------------------------------------------------------------------------------------------------------




--------------------------------------- Iteration     27(   3)  ---------------------------------------


    POTLOK:  cpu time    0.1610: real time    0.1616
    SETDIJ:  cpu time    0.0150: real time    0.0149
    EDDIAG:  cpu time    2.6616: real time    2.6698
  RMM-DIIS:  cpu time    6.1151: real time    6.1314
    ORTHCH:  cpu time    0.5519: real time    0.5530
       DOS:  cpu time    0.0010: real time    0.0011
    CHARGE:  cpu time    0.7069: real time    0.7086
    MIXING:  cpu time    0.0050: real time    0.0046
    --------------------------------------------
      LOOP:  cpu time   10.2174: real time   10.2450

 eigenvalue-minimisations  :  1786
 total energy-change (2. order) :-0.3804775E-05  (-0.4030519E-05)
 number of electron     183.9999940 magnetization 
 augmentation part       62.5414766 magnetization 

 DIPCOR: dipole corrections for dipol
 direction  3 min pos   125,
 dipolmoment           0.000000      0.000000     -0.000698 electrons x Angstroem
 Tr[quadrupol]     -1942.092392

 energy correction for charged system         0.000000 eV
 dipol+quadrupol energy correction           -0.000000 eV
 added-field ion interaction          0.001172 eV  (added to PSCEN)


 eigenvalues of (default mixing * dielectric matrix)
  average eigenvalue GAMMA=   2.3093
  1.3933  3.2252

  free energy =  -0.107340952397E+03  energy without entropy=  -0.107334288546E+03


--------------------------------------------------------------------------------------------------------




--------------------------------------- Iteration     27(   4)  ---------------------------------------


    POTLOK:  cpu time    0.1600: real time    0.1612
    SETDIJ:  cpu time    0.0150: real time    0.0149
    EDDIAG:  cpu time    2.6716: real time    2.6794
  RMM-DIIS:  cpu time    5.0742: real time    5.0873
    ORTHCH:  cpu time    0.5599: real time    0.5610
       DOS:  cpu time    0.0010: real time    0.0011
    CHARGE:  cpu time    0.7049: real time    0.7064
    MIXING:  cpu time    0.0040: real time    0.0047
    --------------------------------------------
      LOOP:  cpu time    9.1906: real time    9.2161

 eigenvalue-minimisations  :  1400
 total energy-change (2. order) : 0.4909743E-06  (-0.6393192E-06)
 number of electron     183.9999940 magnetization 
 augmentation part       62.5415260 magnetization 

 DIPCOR: dipole corrections for dipol
 direction  3 min pos   125,
 dipolmoment           0.000000      0.000000     -0.000678 electrons x Angstroem
 Tr[quadrupol]     -1942.092186

 energy correction for charged system         0.000000 eV
 dipol+quadrupol energy correction           -0.000000 eV
 added-field ion interaction          0.001138 eV  (added to PSCEN)


 eigenvalues of (default mixing * dielectric matrix)
  average eigenvalue GAMMA=   4.5048
 11.1568  0.9620  1.3956

  free energy =  -0.107340951906E+03  energy without entropy=  -0.107334288865E+03


--------------------------------------------------------------------------------------------------------




--------------------------------------- Iteration     27(   5)  ---------------------------------------


    POTLOK:  cpu time    0.1610: real time    0.1613
    SETDIJ:  cpu time    0.0150: real time    0.0150
    EDDIAG:  cpu time    2.6656: real time    2.6741
  RMM-DIIS:  cpu time    5.1762: real time    5.1888
    ORTHCH:  cpu time    0.5599: real time    0.5616
       DOS:  cpu time    0.0010: real time    0.0011
    --------------------------------------------
      LOOP:  cpu time    8.5787: real time    8.6019

 eigenvalue-minimisations  :  1426
 total energy-change (2. order) : 0.6831287E-06  (-0.3204414E-06)
 number of electron     183.9999940 magnetization 
 augmentation part       62.5415260 magnetization 

 DIPCOR: dipole corrections for dipol
 direction  3 min pos   125,
 dipolmoment           0.000000      0.000000     -0.000634 electrons x Angstroem
 Tr[quadrupol]     -1942.091758

 energy correction for charged system         0.000000 eV
 dipol+quadrupol energy correction           -0.000000 eV
 added-field ion interaction          0.001064 eV  (added to PSCEN)


  free energy =  -0.107340951222E+03  energy without entropy=  -0.107334289416E+03


--------------------------------------------------------------------------------------------------------




------------------------ aborting loop because EDIFF is reached ----------------------------------------


    CHARGE:  cpu time    0.7089: real time    0.7102
    FORLOC:  cpu time    0.0230: real time    0.0227
    FORNL :  cpu time    3.2025: real time    3.2114
    STRESS:  cpu time    9.5675: real time    9.5925
    FORCOR:  cpu time    0.1710: real time    0.1709
    FORHAR:  cpu time    0.0550: real time    0.0547
    MIXING:  cpu time    0.0040: real time    0.0049
    OFIELD:  cpu time    0.0010: real time    0.0000

  FORCE on cell =-STRESS in cart. coord.  units (eV):
  Direction    XX          YY          ZZ          XY          YZ          ZX
  --------------------------------------------------------------------------------------
  Alpha Z   195.01348   195.01348   195.01348
  Ewald   20592.49596 20162.59534-28233.17390  -149.46544  -104.46908   109.96050
  Hartree 24221.54501 23948.90891-21735.86300  -145.40726   -51.12405    92.38748
  E(xc)    -941.78217  -941.25932  -942.56796    -0.58507     0.60646     0.57454
  Local  -47640.37378-46946.83180 47125.93058   295.44328   152.73436  -204.74189
  n-local   128.89841   118.87238    98.84094     4.36771    -4.86687    -2.04142
  augment  1122.58588  1129.82858  1140.94339    -1.42176     2.11251     1.01567
  Kinetic  2306.09403  2322.52331  2347.47111    -2.06567     4.76864     2.67068
  Fock        0.00000     0.00000     0.00000     0.00000     0.00000     0.00000
  -------------------------------------------------------------------------------------
  Total     -15.52318   -10.34912    -3.40535     0.86579    -0.23804    -0.17444
  in kB     -25.48315   -16.98931    -5.59028     1.42130    -0.39077    -0.28636
  external pressure =      -16.02 kB  Pullay stress =        0.00 kB



--------------------------------------------------------------------------------------------------------



  FREE ENERGIE OF THE ION-ELECTRON SYSTEM (eV)
  ---------------------------------------------------
  free  energy   TOTEN  =      -107.34095122 eV

  energy  without entropy=     -107.33428942  energy(sigma->0) =     -107.33762032
 
 d Force = 0.2031025E-03[ 0.187E-03, 0.219E-03]  d Energy = 0.2135908E-03-0.105E-04
 d Force =-0.1783453E+01[-0.178E+01,-0.178E+01]  d Ewald  =-0.1783454E+01 0.104E-05


--------------------------------------------------------------------------------------------------------


    POTLOK:  cpu time    0.1750: real time    0.1762


--------------------------------------------------------------------------------------------------------


 Quasi-Newton relaxation of ions (Broydens 2nd method)
  g(Force)  = 0.495E-04   g(Stress)= 0.000E+00

 retain information from N=  2 steps
 eigenvalues of (default step * inverse Hessian matrix)
  average eigenvalue of G=  23.9944
 eigenvalue spectrum of G is 13.6951 34.2938


--------------------------------------------------------------------------------------------------------


  
 reached required accuracy - stopping structural energy minimisation
     LOOP+:  cpu time   71.4501: real time   71.6465
    4ORBIT:  cpu time    0.0000: real time    0.0000

 total amount of memory used by VASP MPI-rank0    96544. kBytes
=======================================================================

   base      :      30000. kBytes
   nonlr-proj:      10055. kBytes
   fftplans  :       4611. kBytes
   grid      :      13447. kBytes
   one-center:        373. kBytes
   wavefun   :      38058. kBytes
 
  
  
 General timing and accounting informations for this job:
 ========================================================
  
                  Total CPU time used (sec):     2915.115
                            User time (sec):     2907.706
                          System time (sec):        7.409
                         Elapsed time (sec):     2923.614
  
                   Maximum memory used (kb):      171960.
                   Average memory used (kb):           0.
  
                          Minor page faults:       820986
                          Major page faults:            0
                 Voluntary context switches:        16641
