<?xml version="1.0" encoding="ISO-8859-1"?>
<modeling>
 <generator>
  <i name="program" type="string">vasp </i>
  <i name="version" type="string">5.4.4.18Apr17-6-g9f103f2a35  </i>
  <i name="subversion" type="string">(build May 11 2017 09:47:33) complex            parallel </i>
  <i name="platform" type="string">tekla2IFC </i>
  <i name="date" type="string">2020 09 14 </i>
  <i name="time" type="string">09:47:01 </i>
 </generator>
 <incar>
  <i type="string" name="SYSTEM">   alloy-surf</i>
  <i type="int" name="ISTART">     0</i>
  <i type="string" name="PREC">normal</i>
  <i type="string" name="ALGO">   Fast</i>
  <i type="int" name="ISPIN">     1</i>
  <i name="AMIX">      0.10000000</i>
  <i name="BMIX">      3.00000000</i>
  <i name="AMIN">      0.01000000</i>
  <i type="int" name="ICHARG">     2</i>
  <i type="int" name="NELM">   100</i>
  <i type="int" name="NELMDL">    -7</i>
  <i type="int" name="NELMIN">     5</i>
  <i type="int" name="IBRION">     1</i>
  <i type="int" name="NFREE">     2</i>
  <i name="EDIFF">      0.00001000</i>
  <i name="EDIFFG">     -0.03000000</i>
  <i type="int" name="NSW">   200</i>
  <i name="ENCUT">    450.00000000</i>
  <i type="int" name="NBANDS">   120</i>
  <i name="POTIM">      0.15000000</i>
  <i type="string" name="LREAL">   Auto</i>
  <i type="int" name="ISMEAR">     0</i>
  <i name="SIGMA">      0.03000000</i>
  <i type="int" name="NWRITE">     0</i>
  <i type="logical" name="LWAVE"> F  </i>
  <i type="logical" name="LCHARG"> F  </i>
  <i type="logical" name="LAECHG"> F  </i>
  <v type="int" name="KPOINT_BSE">    -1     0     0     0</v>
  <i type="int" name="NELM">   100</i>
  <i type="string" name="GGA">  PE</i>
  <i type="logical" name="LDIPOL"> T  </i>
  <i type="int" name="IDIPOL">     3</i>
 </incar>
 <structure name="primitive_cell" >
  <crystal>
   <varray name="basis" >
    <v>       8.39290047       0.00000000       0.00000000 </v>
    <v>       0.00200147       7.12359972       0.00000000 </v>
    <v>       0.00000000       0.00000000      16.32399940 </v>
   </varray>
   <i name="volume">    975.97378269 </i>
   <varray name="rec_basis" >
    <v>       0.11914832      -0.00003348       0.00000000 </v>
    <v>       0.00000000       0.14037847       0.00000000 </v>
    <v>       0.00000000       0.00000000       0.06125950 </v>
   </varray>
  </crystal>
  <varray name="positions" >
   <v>       0.39873999      -0.49517000       0.00000000 </v>
   <v>      -0.42803001       0.22160000       0.07004000 </v>
   <v>       0.07184000      -0.48198998       0.00426000 </v>
   <v>       0.26940000       0.48635000       0.15558000 </v>
   <v>      -0.27025002      -0.42412001       0.02296000 </v>
   <v>       0.23006000       0.16347000       0.05126000 </v>
   <v>       0.42738000      -0.15885001       0.10867000 </v>
   <v>      -0.39968997      -0.44208002       0.17871000 </v>
   <v>       0.10028000      -0.17241001       0.10429000 </v>
   <v>       0.39882001       0.15073000       0.20870000 </v>
   <v>      -0.23071003      -0.10096997       0.12737000 </v>
   <v>      -0.10092998       0.23477000       0.07430000 </v>
   <v>      -0.07269001      -0.45564997       0.17433000 </v>
   <v>       0.23014000      -0.19063002       0.25995001 </v>
   <v>       0.07192000       0.16391000       0.21296000 </v>
   <v>      -0.27016997       0.22178000       0.23164999 </v>
   <v>       0.42747000       0.48705000       0.31737000 </v>
   <v>      -0.42795002      -0.13249999       0.27873999 </v>
   <v>       0.10036000       0.47349000       0.31298000 </v>
   <v>      -0.23062998      -0.45507002       0.33607000 </v>
   <v>       0.26947999       0.13225000       0.36427999 </v>
   <v>      -0.10084999      -0.11932999       0.28299001 </v>
   <v>      -0.39960998       0.20382001       0.38741001 </v>
   <v>      -0.07261002       0.19024999       0.38302001 </v>
  </varray>
 </structure>
 <varray name="primitive_index" >
  <v type="int" >        1 </v>
  <v type="int" >       12 </v>
  <v type="int" >        9 </v>
  <v type="int" >       15 </v>
  <v type="int" >       10 </v>
  <v type="int" >       11 </v>
  <v type="int" >       13 </v>
  <v type="int" >        4 </v>
  <v type="int" >        3 </v>
  <v type="int" >        5 </v>
  <v type="int" >       14 </v>
  <v type="int" >        2 </v>
  <v type="int" >       16 </v>
  <v type="int" >       19 </v>
  <v type="int" >       17 </v>
  <v type="int" >       18 </v>
  <v type="int" >       21 </v>
  <v type="int" >       20 </v>
  <v type="int" >        7 </v>
  <v type="int" >       22 </v>
  <v type="int" >       23 </v>
  <v type="int" >        6 </v>
  <v type="int" >        8 </v>
  <v type="int" >       24 </v>
 </varray>
 <kpoints>
  <generation param="Gamma">
   <v type="int" name="divisions">       4        5        1 </v>
   <v name="usershift">      0.00000000       0.00000000       0.00000000 </v>
   <v name="genvec1">      0.25000000       0.00000000       0.00000000 </v>
   <v name="genvec2">      0.00000000       0.20000000       0.00000000 </v>
   <v name="genvec3">      0.00000000       0.00000000       1.00000000 </v>
   <v name="shift">      0.00000000       0.00000000       0.00000000 </v>
  </generation>
  <varray name="kpointlist" >
   <v>       0.00000000       0.00000000       0.00000000 </v>
   <v>       0.25000000       0.00000000       0.00000000 </v>
   <v>       0.50000000       0.00000000       0.00000000 </v>
   <v>       0.00000000       0.20000000       0.00000000 </v>
   <v>       0.25000000       0.20000000       0.00000000 </v>
   <v>       0.50000000       0.20000000       0.00000000 </v>
   <v>      -0.25000000       0.20000000       0.00000000 </v>
   <v>       0.00000000       0.40000000       0.00000000 </v>
   <v>       0.25000000       0.40000000       0.00000000 </v>
   <v>       0.50000000       0.40000000       0.00000000 </v>
   <v>      -0.25000000       0.40000000       0.00000000 </v>
  </varray>
  <varray name="weights" >
   <v>       0.05000000 </v>
   <v>       0.10000000 </v>
   <v>       0.05000000 </v>
   <v>       0.10000000 </v>
   <v>       0.10000000 </v>
   <v>       0.10000000 </v>
   <v>       0.10000000 </v>
   <v>       0.10000000 </v>
   <v>       0.10000000 </v>
   <v>       0.10000000 </v>
   <v>       0.10000000 </v>
  </varray>
 </kpoints>
 <parameters>
  <separator name="general" >
   <i type="string" name="SYSTEM">alloy-surf</i>
   <i type="logical" name="LCOMPAT"> F  </i>
  </separator>
  <separator name="electronic" >
   <i type="string" name="PREC">normal</i>
   <i name="ENMAX">    450.00000000</i>
   <i name="ENAUG">    416.23000000</i>
   <i name="EDIFF">      0.00001000</i>
   <i type="int" name="IALGO">    68</i>
   <i type="int" name="IWAVPR">    11</i>
   <i type="int" name="NBANDS">   120</i>
   <i name="NELECT">    184.00000000</i>
   <i type="int" name="TURBO">     0</i>
   <i type="int" name="IRESTART">     0</i>
   <i type="int" name="NREBOOT">     0</i>
   <i type="int" name="NMIN">     0</i>
   <i name="EREF">      0.00000000</i>
   <separator name="electronic smearing" >
    <i type="int" name="ISMEAR">     0</i>
    <i name="SIGMA">      0.03000000</i>
    <i name="KSPACING">      0.50000000</i>
    <i type="logical" name="KGAMMA"> T  </i>
   </separator>
   <separator name="electronic projectors" >
    <i type="logical" name="LREAL"> T  </i>
    <v name="ROPT">     -0.00050000     -0.00050000</v>
    <i type="int" name="LMAXPAW">  -100</i>
    <i type="int" name="LMAXMIX">     2</i>
    <i type="logical" name="NLSPLINE"> F  </i>
   </separator>
   <separator name="electronic startup" >
    <i type="int" name="ISTART">     0</i>
    <i type="int" name="ICHARG">     2</i>
    <i type="int" name="INIWAV">     1</i>
   </separator>
   <separator name="electronic spin" >
    <i type="int" name="ISPIN">     1</i>
    <i type="logical" name="LNONCOLLINEAR"> F  </i>
    <v name="MAGMOM">      1.00000000      1.00000000      1.00000000      1.00000000      1.00000000      1.00000000      1.00000000      1.00000000      1.00000000      1.00000000      1.00000000      1.00000000      1.00000000      1.00000000      1.00000000      1.00000000      1.00000000      1.00000000      1.00000000      1.00000000
      1.00000000      1.00000000      1.00000000      1.00000000</v>
    <i name="NUPDOWN">     -1.00000000</i>
    <i type="logical" name="LSORBIT"> F  </i>
    <v name="SAXIS">      0.00000000      0.00000000      1.00000000</v>
    <i type="logical" name="LSPIRAL"> F  </i>
    <v name="QSPIRAL">      0.00000000      0.00000000      0.00000000</v>
    <i type="logical" name="LZEROZ"> F  </i>
   </separator>
   <separator name="electronic exchange-correlation" >
    <i type="logical" name="LASPH"> F  </i>
    <i type="logical" name="LMETAGGA"> F  </i>
   </separator>
   <separator name="electronic convergence" >
    <i type="int" name="NELM">   100</i>
    <i type="int" name="NELMDL">    -7</i>
    <i type="int" name="NELMIN">     5</i>
    <i name="ENINI">    450.00000000</i>
    <separator name="electronic convergence detail" >
     <i type="logical" name="LDIAG"> T  </i>
     <i type="logical" name="LSUBROT"> F  </i>
     <i name="WEIMIN">      0.00100000</i>
     <i name="EBREAK">      0.00000002</i>
     <i name="DEPER">      0.30000000</i>
     <i type="int" name="NRMM">     4</i>
     <i name="TIME">      0.40000000</i>
    </separator>
   </separator>
   <separator name="electronic mixer" >
    <i name="AMIX">      0.10000000</i>
    <i name="BMIX">      3.00000000</i>
    <i name="AMIN">      0.01000000</i>
    <i name="AMIX_MAG">      0.40000000</i>
    <i name="BMIX_MAG">      3.00000000</i>
    <separator name="electronic mixer details" >
     <i type="int" name="IMIX">     4</i>
     <i type="logical" name="MIXFIRST"> F  </i>
     <i type="int" name="MAXMIX">   -45</i>
     <i name="WC">    100.00000000</i>
     <i type="int" name="INIMIX">     1</i>
     <i type="int" name="MIXPRE">     1</i>
     <i type="int" name="MREMOVE">     5</i>
    </separator>
   </separator>
   <separator name="electronic dipolcorrection" >
    <i type="logical" name="LDIPOL"> T  </i>
    <i type="logical" name="LMONO"> F  </i>
    <i type="int" name="IDIPOL">     3</i>
    <i name="EPSILON">      1.00000000</i>
    <v name="DIPOL">   -100.00000000   -100.00000000   -100.00000000</v>
    <i name="EFIELD">      0.00000000</i>
   </separator>
  </separator>
  <separator name="grids" >
   <i type="int" name="NGX">    48</i>
   <i type="int" name="NGY">    40</i>
   <i type="int" name="NGZ">    90</i>
   <i type="int" name="NGXF">    96</i>
   <i type="int" name="NGYF">    80</i>
   <i type="int" name="NGZF">   180</i>
   <i type="logical" name="ADDGRID"> F  </i>
  </separator>
  <separator name="ionic" >
   <i type="int" name="NSW">   200</i>
   <i type="int" name="IBRION">     1</i>
   <i type="int" name="MDALGO">     0</i>
   <i type="int" name="ISIF">     2</i>
   <i name="PSTRESS">      0.00000000</i>
   <i name="EDIFFG">     -0.03000000</i>
   <i type="int" name="NFREE">     2</i>
   <i name="POTIM">      0.15000000</i>
   <i name="SMASS">     -3.00000000</i>
   <i name="SCALEE">      1.00000000</i>
  </separator>
  <separator name="ionic md" >
   <i name="TEBEG">      0.00010000</i>
   <i name="TEEND">      0.00010000</i>
   <i type="int" name="NBLOCK">     1</i>
   <i type="int" name="KBLOCK">   200</i>
   <i type="int" name="NPACO">   256</i>
   <i name="APACO">     16.00000000</i>
  </separator>
  <separator name="symmetry" >
   <i type="int" name="ISYM">     2</i>
   <i name="SYMPREC">      0.00001000</i>
  </separator>
  <separator name="dos" >
   <i type="int" name="LORBIT">     0</i>
   <v name="RWIGS">     -1.00000000     -1.00000000</v>
   <i type="int" name="NEDOS">   301</i>
   <i name="EMIN">     10.00000000</i>
   <i name="EMAX">    -10.00000000</i>
   <i name="EFERMI">      0.00000000</i>
  </separator>
  <separator name="writing" >
   <i type="int" name="NWRITE">     0</i>
   <i type="logical" name="LWAVE"> F  </i>
   <i type="logical" name="LDOWNSAMPLE"> F  </i>
   <i type="logical" name="LCHARG"> F  </i>
   <i type="logical" name="LPARD"> F  </i>
   <i type="logical" name="LVTOT"> F  </i>
   <i type="logical" name="LVHAR"> F  </i>
   <i type="logical" name="LELF"> F  </i>
   <i type="logical" name="LOPTICS"> F  </i>
   <v name="STM">      0.00000000      0.00000000      0.00000000      0.00000000      0.00000000      0.00000000      0.00000000</v>
  </separator>
  <separator name="performance" >
   <i type="int" name="NPAR">    12</i>
   <i type="int" name="NSIM">     4</i>
   <i type="int" name="NBLK">    -1</i>
   <i type="logical" name="LPLANE"> T  </i>
   <i type="logical" name="LSCALAPACK"> T  </i>
   <i type="logical" name="LSCAAWARE"> F  </i>
   <i type="logical" name="LSCALU"> F  </i>
   <i type="logical" name="LASYNC"> F  </i>
   <i type="logical" name="LORBITALREAL"> F  </i>
  </separator>
  <separator name="miscellaneous" >
   <i type="int" name="IDIOT">     3</i>
   <i type="int" name="ISPECIAL">     0</i>
   <i type="logical" name="LMUSIC"> F  </i>
   <v name="POMASS">    114.82000000    106.42000000</v>
   <v name="DARWINR">      0.00000000      0.00000000</v>
   <v name="DARWINV">      1.00000000      1.00000000</v>
   <i type="logical" name="LCORR"> T  </i>
  </separator>
  <i type="logical" name="GGA_COMPAT"> T  </i>
  <i type="logical" name="LBERRY"> F  </i>
  <i type="int" name="ICORELEVEL">     0</i>
  <i type="logical" name="LDAU"> F  </i>
  <i type="int" name="I_CONSTRAINED_M">     0</i>
  <separator name="electronic exchange-correlation" >
   <i type="string" name="GGA">PE</i>
   <i type="int" name="VOSKOWN">     0</i>
   <i type="logical" name="LHFCALC"> F  </i>
   <i type="string" name="PRECFOCK"></i>
   <i type="logical" name="LSYMGRAD"> F  </i>
   <i type="logical" name="LHFONE"> F  </i>
   <i type="logical" name="LRHFCALC"> F  </i>
   <i type="logical" name="LTHOMAS"> F  </i>
   <i type="logical" name="LMODELHF"> F  </i>
   <i name="ENCUT4O">     -1.00000000</i>
   <i type="int" name="EXXOEP">     0</i>
   <i type="int" name="FOURORBIT">     0</i>
   <i name="AEXX">      0.00000000</i>
   <i name="HFALPHA">      0.00000000</i>
   <i name="MCALPHA">      0.00000000</i>
   <i name="ALDAX">      1.00000000</i>
   <i name="AGGAX">      1.00000000</i>
   <i name="ALDAC">      1.00000000</i>
   <i name="AGGAC">      1.00000000</i>
   <i type="int" name="NKREDX">     1</i>
   <i type="int" name="NKREDY">     1</i>
   <i type="int" name="NKREDZ">     1</i>
   <i type="logical" name="SHIFTRED"> F  </i>
   <i type="logical" name="ODDONLY"> F  </i>
   <i type="logical" name="EVENONLY"> F  </i>
   <i type="int" name="LMAXFOCK">     0</i>
   <i type="int" name="NMAXFOCKAE">     0</i>
   <i type="logical" name="LFOCKAEDFT"> F  </i>
   <i name="HFSCREEN">      0.00000000</i>
   <i name="HFSCREENC">      0.00000000</i>
   <i type="int" name="NBANDSGWLOW">     0</i>
  </separator>
  <separator name="vdW DFT" >
   <i type="logical" name="LUSE_VDW"> F  </i>
   <i name="Zab_VDW">     -0.84910000</i>
   <i name="PARAM1">      0.12340000</i>
   <i name="PARAM2">      1.00000000</i>
   <i name="PARAM3">      0.00000000</i>
  </separator>
  <separator name="model GW" >
   <i type="int" name="MODEL_GW">     0</i>
   <i name="MODEL_EPS0">     24.39934457</i>
   <i name="MODEL_ALPHA">      1.00000000</i>
  </separator>
  <separator name="linear response parameters" >
   <i type="logical" name="LEPSILON"> F  </i>
   <i type="logical" name="LRPA"> F  </i>
   <i type="logical" name="LNABLA"> F  </i>
   <i type="logical" name="LVEL"> F  </i>
   <i type="int" name="KINTER">     0</i>
   <i name="CSHIFT">      0.10000000</i>
   <i name="OMEGAMAX">     -1.00000000</i>
   <i name="DEG_THRESHOLD">      0.00200000</i>
   <i name="RTIME">     -0.10000000</i>
   <i name="WPLASMAI">      0.00000000</i>
   <v name="DFIELD">      0.00000000      0.00000000      0.00000000</v>
   <v name="WPLASMA">      0.00000000      0.00000000      0.00000000      0.00000000      0.00000000      0.00000000      0.00000000      0.00000000      0.00000000</v>
  </separator>
  <separator name="orbital magnetization" >
   <i type="logical" name="NUCIND"> F  </i>
   <v name="MAGPOS">      0.00000000      0.00000000      0.00000000</v>
   <i type="logical" name="LNICSALL"> T  </i>
   <i type="logical" name="ORBITALMAG"> F  </i>
   <i type="logical" name="LMAGBLOCH"> F  </i>
   <i type="logical" name="LCHIMAG"> F  </i>
   <i type="logical" name="LGAUGE"> T  </i>
   <i type="int" name="MAGATOM">     0</i>
   <v name="MAGDIPOL">      0.00000000      0.00000000      0.00000000</v>
   <v name="AVECCONST">      0.00000000      0.00000000      0.00000000</v>
  </separator>
  <separator name="response functions" >
   <i type="logical" name="LADDER"> F  </i>
   <i type="logical" name="LRPAFORCE"> F  </i>
   <i type="logical" name="LFXC"> F  </i>
   <i type="logical" name="LHARTREE"> T  </i>
   <i type="int" name="IBSE">     0</i>
   <v type="int" name="KPOINT">    -1     0     0     0</v>
   <i type="logical" name="LTCTE"> F  </i>
   <i type="logical" name="LTETE"> F  </i>
   <i type="logical" name="LTRIPLET"> F  </i>
   <i type="logical" name="LFXCEPS"> F  </i>
   <i type="logical" name="LFXHEG"> F  </i>
   <i type="int" name="NATURALO">     2</i>
   <i type="logical" name="L2ORDER"> F  </i>
   <i type="logical" name="LMP2LT"> F  </i>
   <i type="logical" name="LUSEW"> F  </i>
   <i name="ENCUTGW">     -2.00000000</i>
   <i name="ENCUTGWSOFT">     -2.00000000</i>
   <i name="ENCUTLF">     -1.00000000</i>
   <i type="int" name="LMAXMP2">    -1</i>
   <i name="SCISSOR">      0.00000000</i>
   <i type="int" name="NOMEGA">     0</i>
   <i type="int" name="NOMEGAR">     0</i>
   <i type="int" name="NBANDSGW">    -1</i>
   <i type="int" name="NBANDSO">    -1</i>
   <i type="int" name="NBANDSV">    -1</i>
   <i type="int" name="NELM">   100</i>
   <i type="int" name="NELMHF">     1</i>
   <i type="int" name="DIM">     3</i>
   <i type="int" name="ANTIRES">     0</i>
   <i name="OMEGAMAX">    -30.00000000</i>
   <i name="OMEGAMIN">    -30.00000000</i>
   <i name="OMEGATL">   -200.00000000</i>
   <i type="int" name="OMEGAGRID">   140</i>
   <i name="CSHIFT">     -0.10000000</i>
   <i type="logical" name="SELFENERGY"> F  </i>
   <i type="logical" name="LSPECTRAL"> F  </i>
   <i type="logical" name="LSPECTRALGW"> F  </i>
   <i type="logical" name="LSINGLES"> F  </i>
   <i type="logical" name="LFERMIGW"> F  </i>
   <i type="logical" name="ODDONLYGW"> F  </i>
   <i type="logical" name="EVENONLYGW"> F  </i>
   <i type="int" name="NKREDLFX">     1</i>
   <i type="int" name="NKREDLFY">     1</i>
   <i type="int" name="NKREDLFZ">     1</i>
   <i type="int" name="MAXMEM">  2800</i>
   <i type="int" name="TELESCOPE">     0</i>
   <i type="int" name="TAUPAR">     1</i>
   <i type="int" name="OMEGAPAR">    -1</i>
   <i name="LAMBDA">      1.00000000</i>
  </separator>
  <separator name="External order field" >
   <i name="OFIELD_KAPPA">      0.00000000</i>
   <v name="OFIELD_K">      0.00000000      0.00000000      0.00000000</v>
   <i name="OFIELD_Q6_NEAR">      0.00000000</i>
   <i name="OFIELD_Q6_FAR">      0.00000000</i>
   <i name="OFIELD_A">      0.00000000</i>
  </separator>
 </parameters>
 <atominfo>
  <atoms>      24 </atoms>
  <types>       2 </types>
  <array name="atoms" >
   <dimension dim="1">ion</dimension>
   <field type="string">element</field>
   <field type="int">atomtype</field>
   <set>
    <rc><c>In</c><c>   1</c></rc>
    <rc><c>In</c><c>   1</c></rc>
    <rc><c>In</c><c>   1</c></rc>
    <rc><c>In</c><c>   1</c></rc>
    <rc><c>In</c><c>   1</c></rc>
    <rc><c>In</c><c>   1</c></rc>
    <rc><c>In</c><c>   1</c></rc>
    <rc><c>In</c><c>   1</c></rc>
    <rc><c>Pd</c><c>   2</c></rc>
    <rc><c>Pd</c><c>   2</c></rc>
    <rc><c>Pd</c><c>   2</c></rc>
    <rc><c>Pd</c><c>   2</c></rc>
    <rc><c>Pd</c><c>   2</c></rc>
    <rc><c>Pd</c><c>   2</c></rc>
    <rc><c>Pd</c><c>   2</c></rc>
    <rc><c>Pd</c><c>   2</c></rc>
    <rc><c>Pd</c><c>   2</c></rc>
    <rc><c>Pd</c><c>   2</c></rc>
    <rc><c>Pd</c><c>   2</c></rc>
    <rc><c>Pd</c><c>   2</c></rc>
    <rc><c>Pd</c><c>   2</c></rc>
    <rc><c>Pd</c><c>   2</c></rc>
    <rc><c>Pd</c><c>   2</c></rc>
    <rc><c>Pd</c><c>   2</c></rc>
   </set>
  </array>
  <array name="atomtypes" >
   <dimension dim="1">type</dimension>
   <field type="int">atomspertype</field>
   <field type="string">element</field>
   <field>mass</field>
   <field>valence</field>
   <field type="string">pseudopotential</field>
   <set>
    <rc><c>   8</c><c>In</c><c>    114.82000000</c><c>      3.00000000</c><c>  PAW_PBE In 08Apr2002                  </c></rc>
    <rc><c>  16</c><c>Pd</c><c>    106.42000000</c><c>     10.00000000</c><c>  PAW_PBE Pd 04Jan2005                  </c></rc>
   </set>
  </array>
 </atominfo>
 <structure name="initialpos" >
  <crystal>
   <varray name="basis" >
    <v>       8.39290047       0.00000000       0.00000000 </v>
    <v>       0.00200147       7.12359972       0.00000000 </v>
    <v>       0.00000000       0.00000000      16.32399940 </v>
   </varray>
   <i name="volume">    975.97378269 </i>
   <varray name="rec_basis" >
    <v>       0.11914832      -0.00003348       0.00000000 </v>
    <v>       0.00000000       0.14037847       0.00000000 </v>
    <v>       0.00000000       0.00000000       0.06125950 </v>
   </varray>
  </crystal>
  <varray name="positions" >
   <v>       0.39873999       0.50483000       0.00000000 </v>
   <v>       0.89907002       0.23477000       0.07430000 </v>
   <v>       0.10028000       0.82758999       0.10429000 </v>
   <v>       0.60031003       0.55791998       0.17871000 </v>
   <v>       0.39882001       0.15073000       0.20870000 </v>
   <v>       0.89915001       0.88067001       0.28299001 </v>
   <v>       0.10036000       0.47349000       0.31298000 </v>
   <v>       0.60039002       0.20382001       0.38741001 </v>
   <v>       0.07184000       0.51801002       0.00426000 </v>
   <v>       0.72974998       0.57587999       0.02296000 </v>
   <v>       0.23006000       0.16347000       0.05126000 </v>
   <v>       0.57196999       0.22160000       0.07004000 </v>
   <v>       0.42738000       0.84114999       0.10867000 </v>
   <v>       0.76928997       0.89903003       0.12737000 </v>
   <v>       0.26940000       0.48635000       0.15558000 </v>
   <v>       0.92730999       0.54435003       0.17433000 </v>
   <v>       0.07192000       0.16391000       0.21296000 </v>
   <v>       0.72983003       0.22178000       0.23164999 </v>
   <v>       0.23014000       0.80936998       0.25995001 </v>
   <v>       0.57204998       0.86750001       0.27873999 </v>
   <v>       0.42747000       0.48705000       0.31737000 </v>
   <v>       0.76937002       0.54492998       0.33607000 </v>
   <v>       0.26947999       0.13225000       0.36427999 </v>
   <v>       0.92738998       0.19024999       0.38302001 </v>
  </varray>
  <varray name="selective"  type="logical" >
   <v type="logical" >  F  F  F </v>
   <v type="logical" >  F  F  F </v>
   <v type="logical" >  F  F  F </v>
   <v type="logical" >  F  F  F </v>
   <v type="logical" >  T  T  T </v>
   <v type="logical" >  T  T  T </v>
   <v type="logical" >  T  T  T </v>
   <v type="logical" >  T  T  T </v>
   <v type="logical" >  F  F  F </v>
   <v type="logical" >  F  F  F </v>
   <v type="logical" >  F  F  F </v>
   <v type="logical" >  F  F  F </v>
   <v type="logical" >  F  F  F </v>
   <v type="logical" >  F  F  F </v>
   <v type="logical" >  F  F  F </v>
   <v type="logical" >  F  F  F </v>
   <v type="logical" >  T  T  T </v>
   <v type="logical" >  T  T  T </v>
   <v type="logical" >  T  T  T </v>
   <v type="logical" >  T  T  T </v>
   <v type="logical" >  T  T  T </v>
   <v type="logical" >  T  T  T </v>
   <v type="logical" >  T  T  T </v>
   <v type="logical" >  T  T  T </v>
  </varray>
  <nose>
   <v>      -3.00000000       0.00000000       0.00010000       0.00010000 </v>
  </nose>
 </structure>
 <calculation>
  <scstep>
   <time name="dav">   15.31   15.35</time>
   <time name="total">   15.49   15.53</time>
   <dipole>
    <v name="dipole">      0.00000000       0.00000000       0.00033497 </v>
    <i name="Tr[quadrupol]">  -1918.62407651 </i>
    <i name="Echarged">      0.00000000 </i>
    <i name="Edipol_quadrupol">      0.00000000 </i>
    <i name="Eion">      0.00000000 </i>
   </dipole>
   <energy>
    <i name="alphaZ">    195.01362918 </i>
    <i name="ewald">  11936.77092550 </i>
    <i name="hartreedc"> -25715.47971420 </i>
    <i name="XCdc">   -921.45995095 </i>
    <i name="pawpsdc">  13661.59498581 </i>
    <i name="pawaedc"> -12191.00304961 </i>
    <i name="eentropy">     -0.00459076 </i>
    <i name="bandstr">    686.57201467 </i>
    <i name="atom">  13386.29214936 </i>
    <i name="e_fr_energy">   1038.29639900 </i>
    <i name="e_wo_entrp">   1038.30098976 </i>
    <i name="e_0_energy">   1038.29869438 </i>
   </energy>
  </scstep>
  <scstep>
   <time name="dav">   17.01   17.05</time>
   <time name="total">   17.01   17.05</time>
   <dipole>
    <v name="dipole">      0.00000000       0.00000000       0.00033497 </v>
    <i name="Tr[quadrupol]">  -1918.62407651 </i>
    <i name="Echarged">      0.00000000 </i>
    <i name="Edipol_quadrupol">      0.00000000 </i>
    <i name="Eion">      0.00000000 </i>
   </dipole>
   <energy>
    <i name="e_fr_energy">    -37.21913498 </i>
    <i name="e_wo_entrp">    -37.21361836 </i>
    <i name="e_0_energy">    -37.21637667 </i>
   </energy>
  </scstep>
  <scstep>
   <time name="dav">   17.47   17.52</time>
   <time name="total">   17.48   17.52</time>
   <dipole>
    <v name="dipole">      0.00000000       0.00000000       0.00033497 </v>
    <i name="Tr[quadrupol]">  -1918.62407651 </i>
    <i name="Echarged">      0.00000000 </i>
    <i name="Edipol_quadrupol">      0.00000000 </i>
    <i name="Eion">      0.00000000 </i>
   </dipole>
   <energy>
    <i name="e_fr_energy">   -108.92959979 </i>
    <i name="e_wo_entrp">   -108.92438985 </i>
    <i name="e_0_energy">   -108.92699482 </i>
   </energy>
  </scstep>
  <scstep>
   <time name="dav">   17.69   17.74</time>
   <time name="total">   17.69   17.74</time>
   <dipole>
    <v name="dipole">      0.00000000       0.00000000       0.00033497 </v>
    <i name="Tr[quadrupol]">  -1918.62407651 </i>
    <i name="Echarged">      0.00000000 </i>
    <i name="Edipol_quadrupol">      0.00000000 </i>
    <i name="Eion">      0.00000000 </i>
   </dipole>
   <energy>
    <i name="e_fr_energy">   -110.97254807 </i>
    <i name="e_wo_entrp">   -110.96753882 </i>
    <i name="e_0_energy">   -110.97004345 </i>
   </energy>
  </scstep>
  <scstep>
   <time name="dav">   17.99   18.04</time>
   <time name="total">   17.99   18.04</time>
   <dipole>
    <v name="dipole">      0.00000000       0.00000000       0.00033497 </v>
    <i name="Tr[quadrupol]">  -1918.62407651 </i>
    <i name="Echarged">      0.00000000 </i>
    <i name="Edipol_quadrupol">      0.00000000 </i>
    <i name="Eion">      0.00000000 </i>
   </dipole>
   <energy>
    <i name="e_fr_energy">   -111.03673019 </i>
    <i name="e_wo_entrp">   -111.03171778 </i>
    <i name="e_0_energy">   -111.03422398 </i>
   </energy>
  </scstep>
  <scstep>
   <time name="dav">   19.15   19.20</time>
   <time name="total">   19.15   19.20</time>
   <dipole>
    <v name="dipole">      0.00000000       0.00000000       0.00033497 </v>
    <i name="Tr[quadrupol]">  -1918.62407651 </i>
    <i name="Echarged">      0.00000000 </i>
    <i name="Edipol_quadrupol">      0.00000000 </i>
    <i name="Eion">      0.00000000 </i>
   </dipole>
   <energy>
    <i name="e_fr_energy">   -111.04009352 </i>
    <i name="e_wo_entrp">   -111.03508083 </i>
    <i name="e_0_energy">   -111.03758717 </i>
   </energy>
  </scstep>
  <scstep>
   <time name="dav">   18.03   18.08</time>
   <time name="total">   18.74   18.79</time>
   <dipole>
    <v name="dipole">      0.00000000       0.00000000       0.00033497 </v>
    <i name="Tr[quadrupol]">  -1918.62407651 </i>
    <i name="Echarged">      0.00000000 </i>
    <i name="Edipol_quadrupol">      0.00000000 </i>
    <i name="Eion">      0.00000000 </i>
   </dipole>
   <energy>
    <i name="e_fr_energy">   -111.04019665 </i>
    <i name="e_wo_entrp">   -111.03518389 </i>
    <i name="e_0_energy">   -111.03769027 </i>
   </energy>
  </scstep>
  <scstep>
   <time name="diag">    2.67    2.68</time>
   <time name="diis">    9.26    9.28</time>
   <time name="orth">    0.55    0.55</time>
   <time name="total">   13.35   13.39</time>
   <dipole>
    <v name="dipole">      0.00000000       0.00000000       0.00016441 </v>
    <i name="Tr[quadrupol]">  -1918.99930675 </i>
    <i name="Echarged">      0.00000000 </i>
    <i name="Edipol_quadrupol">      0.00000000 </i>
    <i name="Eion">      0.00000000 </i>
   </dipole>
   <energy>
    <i name="e_fr_energy">   -110.57483513 </i>
    <i name="e_wo_entrp">   -110.56999200 </i>
    <i name="e_0_energy">   -110.57241357 </i>
   </energy>
  </scstep>
  <scstep>
   <time name="diag">    2.67    2.68</time>
   <time name="diis">    9.24    9.27</time>
   <time name="orth">    0.55    0.55</time>
   <time name="total">   13.34   13.37</time>
   <dipole>
    <v name="dipole">      0.00000000       0.00000000      -0.01153622 </v>
    <i name="Tr[quadrupol]">  -1922.41596374 </i>
    <i name="Echarged">      0.00000000 </i>
    <i name="Edipol_quadrupol">      0.00000000 </i>
    <i name="Eion">      0.00000000 </i>
   </dipole>
   <energy>
    <i name="e_fr_energy">   -107.93595990 </i>
    <i name="e_wo_entrp">   -107.92971895 </i>
    <i name="e_0_energy">   -107.93283943 </i>
   </energy>
  </scstep>
  <scstep>
   <time name="diag">    2.67    2.68</time>
   <time name="diis">    9.03    9.05</time>
   <time name="orth">    0.55    0.55</time>
   <time name="total">   13.13   13.17</time>
   <dipole>
    <v name="dipole">      0.00000000       0.00000000       0.01102498 </v>
    <i name="Tr[quadrupol]">  -1923.21428581 </i>
    <i name="Echarged">      0.00000000 </i>
    <i name="Edipol_quadrupol">      0.00000000 </i>
    <i name="Eion">      0.00000000 </i>
   </dipole>
   <energy>
    <i name="e_fr_energy">   -107.60870992 </i>
    <i name="e_wo_entrp">   -107.60286817 </i>
    <i name="e_0_energy">   -107.60578905 </i>
   </energy>
  </scstep>
  <scstep>
   <time name="diag">    2.68    2.69</time>
   <time name="diis">    9.17    9.19</time>
   <time name="orth">    0.56    0.56</time>
   <time name="total">   13.28   13.31</time>
   <dipole>
    <v name="dipole">      0.00000000       0.00000000       0.03711514 </v>
    <i name="Tr[quadrupol]">  -1924.34080078 </i>
    <i name="Echarged">      0.00000000 </i>
    <i name="Edipol_quadrupol">      0.00000000 </i>
    <i name="Eion">      0.00000000 </i>
   </dipole>
   <energy>
    <i name="e_fr_energy">   -107.29330152 </i>
    <i name="e_wo_entrp">   -107.28800493 </i>
    <i name="e_0_energy">   -107.29065322 </i>
   </energy>
  </scstep>
  <scstep>
   <time name="diag">    2.66    2.67</time>
   <time name="diis">    9.07    9.10</time>
   <time name="orth">    0.56    0.56</time>
   <time name="total">   13.17   13.21</time>
   <dipole>
    <v name="dipole">      0.00000000       0.00000000      -0.02104341 </v>
    <i name="Tr[quadrupol]">  -1924.65820082 </i>
    <i name="Echarged">      0.00000000 </i>
    <i name="Edipol_quadrupol">      0.00000000 </i>
    <i name="Eion">      0.00000000 </i>
   </dipole>
   <energy>
    <i name="e_fr_energy">   -107.23038333 </i>
    <i name="e_wo_entrp">   -107.22497570 </i>
    <i name="e_0_energy">   -107.22767952 </i>
   </energy>
  </scstep>
  <scstep>
   <time name="diag">    2.67    2.68</time>
   <time name="diis">    9.21    9.23</time>
   <time name="orth">    0.56    0.56</time>
   <time name="total">   13.32   13.36</time>
   <dipole>
    <v name="dipole">      0.00000000       0.00000000      -0.04215715 </v>
    <i name="Tr[quadrupol]">  -1924.91805119 </i>
    <i name="Echarged">      0.00000000 </i>
    <i name="Edipol_quadrupol">      0.00000000 </i>
    <i name="Eion">      0.00000000 </i>
   </dipole>
   <energy>
    <i name="e_fr_energy">   -107.18790702 </i>
    <i name="e_wo_entrp">   -107.18246598 </i>
    <i name="e_0_energy">   -107.18518650 </i>
   </energy>
  </scstep>
  <scstep>
   <time name="diag">    2.67    2.68</time>
   <time name="diis">    9.26    9.28</time>
   <time name="orth">    0.55    0.55</time>
   <time name="total">   13.36   13.40</time>
   <dipole>
    <v name="dipole">      0.00000000       0.00000000       0.06027636 </v>
    <i name="Tr[quadrupol]">  -1925.78549690 </i>
    <i name="Echarged">      0.00000000 </i>
    <i name="Edipol_quadrupol">      0.00000000 </i>
    <i name="Eion">      0.00000000 </i>
   </dipole>
   <energy>
    <i name="e_fr_energy">   -107.10539969 </i>
    <i name="e_wo_entrp">   -107.09993502 </i>
    <i name="e_0_energy">   -107.10266736 </i>
   </energy>
  </scstep>
  <scstep>
   <time name="diag">    2.68    2.69</time>
   <time name="diis">    9.22    9.24</time>
   <time name="orth">    0.55    0.55</time>
   <time name="total">   13.33   13.37</time>
   <dipole>
    <v name="dipole">      0.00000000       0.00000000      -0.04982233 </v>
    <i name="Tr[quadrupol]">  -1926.02821580 </i>
    <i name="Echarged">      0.00000000 </i>
    <i name="Edipol_quadrupol">      0.00000000 </i>
    <i name="Eion">      0.00000000 </i>
   </dipole>
   <energy>
    <i name="e_fr_energy">   -107.07869946 </i>
    <i name="e_wo_entrp">   -107.07307114 </i>
    <i name="e_0_energy">   -107.07588530 </i>
   </energy>
  </scstep>
  <scstep>
   <time name="diag">    2.68    2.69</time>
   <time name="diis">    9.12    9.14</time>
   <time name="orth">    0.55    0.55</time>
   <time name="total">   13.23   13.26</time>
   <dipole>
    <v name="dipole">      0.00000000       0.00000000      -0.11547002 </v>
    <i name="Tr[quadrupol]">  -1926.29109401 </i>
    <i name="Echarged">      0.00000000 </i>
    <i name="Edipol_quadrupol">      0.00000000 </i>
    <i name="Eion">      0.00000000 </i>
   </dipole>
   <energy>
    <i name="e_fr_energy">   -107.10286257 </i>
    <i name="e_wo_entrp">   -107.09756588 </i>
    <i name="e_0_energy">   -107.10021422 </i>
   </energy>
  </scstep>
  <scstep>
   <time name="diag">    2.67    2.68</time>
   <time name="diis">    9.25    9.27</time>
   <time name="orth">    0.56    0.56</time>
   <time name="total">   13.37   13.41</time>
   <dipole>
    <v name="dipole">      0.00000000       0.00000000       0.01667218 </v>
    <i name="Tr[quadrupol]">  -1926.56995401 </i>
    <i name="Echarged">      0.00000000 </i>
    <i name="Edipol_quadrupol">      0.00000000 </i>
    <i name="Eion">      0.00000000 </i>
   </dipole>
   <energy>
    <i name="e_fr_energy">   -107.05466900 </i>
    <i name="e_wo_entrp">   -107.04917528 </i>
    <i name="e_0_energy">   -107.05192214 </i>
   </energy>
  </scstep>
  <scstep>
   <time name="diag">    2.68    2.68</time>
   <time name="diis">    9.16    9.18</time>
   <time name="orth">    0.56    0.56</time>
   <time name="total">   13.28   13.31</time>
   <dipole>
    <v name="dipole">      0.00000000       0.00000000       0.05013846 </v>
    <i name="Tr[quadrupol]">  -1926.68696162 </i>
    <i name="Echarged">      0.00000000 </i>
    <i name="Edipol_quadrupol">      0.00000000 </i>
    <i name="Eion">      0.00000000 </i>
   </dipole>
   <energy>
    <i name="e_fr_energy">   -107.05666461 </i>
    <i name="e_wo_entrp">   -107.05116820 </i>
    <i name="e_0_energy">   -107.05391640 </i>
   </energy>
  </scstep>
  <scstep>
   <time name="diag">    2.68    2.68</time>
   <time name="diis">    9.25    9.27</time>
   <time name="orth">    0.56    0.56</time>
   <time name="total">   13.37   13.40</time>
   <dipole>
    <v name="dipole">      0.00000000       0.00000000       0.04389880 </v>
    <i name="Tr[quadrupol]">  -1927.08163074 </i>
    <i name="Echarged">      0.00000000 </i>
    <i name="Edipol_quadrupol">      0.00000000 </i>
    <i name="Eion">      0.00000000 </i>
   </dipole>
   <energy>
    <i name="e_fr_energy">   -107.04770946 </i>
    <i name="e_wo_entrp">   -107.04219643 </i>
    <i name="e_0_energy">   -107.04495295 </i>
   </energy>
  </scstep>
  <scstep>
   <time name="diag">    2.67    2.68</time>
   <time name="diis">    9.16    9.18</time>
   <time name="orth">    0.56    0.56</time>
   <time name="total">   13.27   13.30</time>
   <dipole>
    <v name="dipole">      0.00000000       0.00000000       0.06211872 </v>
    <i name="Tr[quadrupol]">  -1927.14171706 </i>
    <i name="Echarged">      0.00000000 </i>
    <i name="Edipol_quadrupol">      0.00000000 </i>
    <i name="Eion">      0.00000000 </i>
   </dipole>
   <energy>
    <i name="e_fr_energy">   -107.05022800 </i>
    <i name="e_wo_entrp">   -107.04474094 </i>
    <i name="e_0_energy">   -107.04748447 </i>
   </energy>
  </scstep>
  <scstep>
   <time name="diag">    2.67    2.68</time>
   <time name="diis">    9.11    9.13</time>
   <time name="orth">    0.56    0.56</time>
   <time name="total">   13.22   13.26</time>
   <dipole>
    <v name="dipole">      0.00000000       0.00000000      -0.03818044 </v>
    <i name="Tr[quadrupol]">  -1927.43134499 </i>
    <i name="Echarged">      0.00000000 </i>
    <i name="Edipol_quadrupol">      0.00000000 </i>
    <i name="Eion">      0.00000000 </i>
   </dipole>
   <energy>
    <i name="e_fr_energy">   -107.05450812 </i>
    <i name="e_wo_entrp">   -107.04900363 </i>
    <i name="e_0_energy">   -107.05175587 </i>
   </energy>
  </scstep>
  <scstep>
   <time name="diag">    2.68    2.69</time>
   <time name="diis">    9.04    9.07</time>
   <time name="orth">    0.56    0.56</time>
   <time name="total">   13.16   13.20</time>
   <dipole>
    <v name="dipole">      0.00000000       0.00000000      -0.09923374 </v>
    <i name="Tr[quadrupol]">  -1927.94173058 </i>
    <i name="Echarged">      0.00000000 </i>
    <i name="Edipol_quadrupol">      0.00000000 </i>
    <i name="Eion">      0.00000000 </i>
   </dipole>
   <energy>
    <i name="e_fr_energy">   -107.08456891 </i>
    <i name="e_wo_entrp">   -107.07917201 </i>
    <i name="e_0_energy">   -107.08187046 </i>
   </energy>
  </scstep>
  <scstep>
   <time name="diag">    2.67    2.68</time>
   <time name="diis">    9.30    9.33</time>
   <time name="orth">    0.55    0.55</time>
   <time name="total">   13.42   13.45</time>
   <dipole>
    <v name="dipole">      0.00000000       0.00000000      -0.09108480 </v>
    <i name="Tr[quadrupol]">  -1928.06466775 </i>
    <i name="Echarged">      0.00000000 </i>
    <i name="Edipol_quadrupol">      0.00000000 </i>
    <i name="Eion">      0.00000000 </i>
   </dipole>
   <energy>
    <i name="e_fr_energy">   -107.07315830 </i>
    <i name="e_wo_entrp">   -107.06769959 </i>
    <i name="e_0_energy">   -107.07042895 </i>
   </energy>
  </scstep>
  <scstep>
   <time name="diag">    2.67    2.68</time>
   <time name="diis">    9.02    9.05</time>
   <time name="orth">    0.55    0.55</time>
   <time name="total">   13.13   13.17</time>
   <dipole>
    <v name="dipole">      0.00000000       0.00000000      -0.05027367 </v>
    <i name="Tr[quadrupol]">  -1928.22031219 </i>
    <i name="Echarged">      0.00000000 </i>
    <i name="Edipol_quadrupol">      0.00000000 </i>
    <i name="Eion">      0.00000000 </i>
   </dipole>
   <energy>
    <i name="e_fr_energy">   -107.05228091 </i>
    <i name="e_wo_entrp">   -107.04671526 </i>
    <i name="e_0_energy">   -107.04949809 </i>
   </energy>
  </scstep>
  <scstep>
   <time name="diag">    2.67    2.68</time>
   <time name="diis">    8.90    8.92</time>
   <time name="orth">    0.55    0.55</time>
   <time name="total">   13.01   13.04</time>
   <dipole>
    <v name="dipole">      0.00000000       0.00000000      -0.03255733 </v>
    <i name="Tr[quadrupol]">  -1928.28056051 </i>
    <i name="Echarged">      0.00000000 </i>
    <i name="Edipol_quadrupol">      0.00000000 </i>
    <i name="Eion">      0.00000000 </i>
   </dipole>
   <energy>
    <i name="e_fr_energy">   -107.04846708 </i>
    <i name="e_wo_entrp">   -107.04288430 </i>
    <i name="e_0_energy">   -107.04567569 </i>
   </energy>
  </scstep>
  <scstep>
   <time name="diag">    2.68    2.69</time>
   <time name="diis">    8.99    9.01</time>
   <time name="orth">    0.56    0.56</time>
   <time name="total">   13.12   13.15</time>
   <dipole>
    <v name="dipole">      0.00000000       0.00000000       0.00606460 </v>
    <i name="Tr[quadrupol]">  -1928.45810314 </i>
    <i name="Echarged">      0.00000000 </i>
    <i name="Edipol_quadrupol">      0.00000000 </i>
    <i name="Eion">      0.00000000 </i>
   </dipole>
   <energy>
    <i name="e_fr_energy">   -107.05092431 </i>
    <i name="e_wo_entrp">   -107.04533059 </i>
    <i name="e_0_energy">   -107.04812745 </i>
   </energy>
  </scstep>
  <scstep>
   <time name="diag">    2.68    2.68</time>
   <time name="diis">    9.16    9.19</time>
   <time name="orth">    0.55    0.55</time>
   <time name="total">   13.27   13.31</time>
   <dipole>
    <v name="dipole">      0.00000000       0.00000000       0.01017844 </v>
    <i name="Tr[quadrupol]">  -1928.52057071 </i>
    <i name="Echarged">      0.00000000 </i>
    <i name="Edipol_quadrupol">      0.00000000 </i>
    <i name="Eion">      0.00000000 </i>
   </dipole>
   <energy>
    <i name="e_fr_energy">   -107.05165392 </i>
    <i name="e_wo_entrp">   -107.04605659 </i>
    <i name="e_0_energy">   -107.04885525 </i>
   </energy>
  </scstep>
  <scstep>
   <time name="diag">    2.68    2.69</time>
   <time name="diis">    9.15    9.17</time>
   <time name="orth">    0.55    0.55</time>
   <time name="total">   13.28   13.31</time>
   <dipole>
    <v name="dipole">      0.00000000       0.00000000       0.01931329 </v>
    <i name="Tr[quadrupol]">  -1928.62674221 </i>
    <i name="Echarged">      0.00000000 </i>
    <i name="Edipol_quadrupol">      0.00000000 </i>
    <i name="Eion">      0.00000000 </i>
   </dipole>
   <energy>
    <i name="e_fr_energy">   -107.05354238 </i>
    <i name="e_wo_entrp">   -107.04793204 </i>
    <i name="e_0_energy">   -107.05073721 </i>
   </energy>
  </scstep>
  <scstep>
   <time name="diag">    2.68    2.69</time>
   <time name="diis">    9.04    9.06</time>
   <time name="orth">    0.55    0.55</time>
   <time name="total">   13.17   13.21</time>
   <dipole>
    <v name="dipole">      0.00000000       0.00000000       0.02135949 </v>
    <i name="Tr[quadrupol]">  -1928.68203906 </i>
    <i name="Echarged">      0.00000000 </i>
    <i name="Edipol_quadrupol">      0.00000000 </i>
    <i name="Eion">      0.00000000 </i>
   </dipole>
   <energy>
    <i name="e_fr_energy">   -107.05351852 </i>
    <i name="e_wo_entrp">   -107.04790511 </i>
    <i name="e_0_energy">   -107.05071182 </i>
   </energy>
  </scstep>
  <scstep>
   <time name="diag">    2.68    2.69</time>
   <time name="diis">    9.05    9.07</time>
   <time name="orth">    0.55    0.55</time>
   <time name="total">   13.18   13.21</time>
   <dipole>
    <v name="dipole">      0.00000000       0.00000000       0.00995413 </v>
    <i name="Tr[quadrupol]">  -1928.74279879 </i>
    <i name="Echarged">      0.00000000 </i>
    <i name="Edipol_quadrupol">      0.00000000 </i>
    <i name="Eion">      0.00000000 </i>
   </dipole>
   <energy>
    <i name="e_fr_energy">   -107.05202747 </i>
    <i name="e_wo_entrp">   -107.04641075 </i>
    <i name="e_0_energy">   -107.04921911 </i>
   </energy>
  </scstep>
  <scstep>
   <time name="diag">    2.68    2.69</time>
   <time name="diis">    8.82    8.84</time>
   <time name="orth">    0.55    0.55</time>
   <time name="total">   12.96   12.99</time>
   <dipole>
    <v name="dipole">      0.00000000       0.00000000       0.00721451 </v>
    <i name="Tr[quadrupol]">  -1928.77535091 </i>
    <i name="Echarged">      0.00000000 </i>
    <i name="Edipol_quadrupol">      0.00000000 </i>
    <i name="Eion">      0.00000000 </i>
   </dipole>
   <energy>
    <i name="e_fr_energy">   -107.05185941 </i>
    <i name="e_wo_entrp">   -107.04624341 </i>
    <i name="e_0_energy">   -107.04905141 </i>
   </energy>
  </scstep>
  <scstep>
   <time name="diag">    2.68    2.69</time>
   <time name="diis">    9.11    9.13</time>
   <time name="orth">    0.55    0.55</time>
   <time name="total">   13.24   13.27</time>
   <dipole>
    <v name="dipole">      0.00000000       0.00000000       0.00302845 </v>
    <i name="Tr[quadrupol]">  -1928.82542832 </i>
    <i name="Echarged">      0.00000000 </i>
    <i name="Edipol_quadrupol">      0.00000000 </i>
    <i name="Eion">      0.00000000 </i>
   </dipole>
   <energy>
    <i name="e_fr_energy">   -107.05182599 </i>
    <i name="e_wo_entrp">   -107.04620727 </i>
    <i name="e_0_energy">   -107.04901663 </i>
   </energy>
  </scstep>
  <scstep>
   <time name="diag">    2.67    2.68</time>
   <time name="diis">    6.30    6.31</time>
   <time name="orth">    0.56    0.56</time>
   <time name="total">    9.70    9.73</time>
   <dipole>
    <v name="dipole">      0.00000000       0.00000000       0.00144128 </v>
    <i name="Tr[quadrupol]">  -1928.83439017 </i>
    <i name="Echarged">      0.00000000 </i>
    <i name="Edipol_quadrupol">      0.00000000 </i>
    <i name="Eion">      0.00000000 </i>
   </dipole>
   <energy>
    <i name="alphaZ">    195.01857344 </i>
    <i name="ewald">  11936.77092550 </i>
    <i name="hartreedc"> -25853.53061624 </i>
    <i name="XCdc">   -919.30758955 </i>
    <i name="pawpsdc">  16741.21440422 </i>
    <i name="pawaedc"> -15291.82910084 </i>
    <i name="eentropy">     -0.00561865 </i>
    <i name="bandstr">   -301.67495824 </i>
    <i name="atom">  13386.29214936 </i>
    <i name="e_fr_energy">   -107.05183100 </i>
    <i name="e_wo_entrp">   -107.04621235 </i>
    <i name="e_0_energy">   -107.04902168 </i>
   </energy>
  </scstep>
  <structure>
   <crystal>
    <varray name="basis" >
     <v>       8.39290047       0.00000000       0.00000000 </v>
     <v>       0.00200147       7.12359972       0.00000000 </v>
     <v>       0.00000000       0.00000000      16.32399940 </v>
    </varray>
    <i name="volume">    975.97378269 </i>
    <varray name="rec_basis" >
     <v>       0.11914832      -0.00003348       0.00000000 </v>
     <v>       0.00000000       0.14037847       0.00000000 </v>
     <v>       0.00000000       0.00000000       0.06125950 </v>
    </varray>
   </crystal>
   <varray name="positions" >
    <v>       0.39873999       0.50483000       0.00000000 </v>
    <v>       0.89907002       0.23477000       0.07430000 </v>
    <v>       0.10028000       0.82758999       0.10429000 </v>
    <v>       0.60031003       0.55791998       0.17871000 </v>
    <v>       0.39882001       0.15073000       0.20870000 </v>
    <v>       0.89915001       0.88067001       0.28299001 </v>
    <v>       0.10036000       0.47349000       0.31298000 </v>
    <v>       0.60039002       0.20382001       0.38741001 </v>
    <v>       0.07184000       0.51801002       0.00426000 </v>
    <v>       0.72974998       0.57587999       0.02296000 </v>
    <v>       0.23006000       0.16347000       0.05126000 </v>
    <v>       0.57196999       0.22160000       0.07004000 </v>
    <v>       0.42738000       0.84114999       0.10867000 </v>
    <v>       0.76928997       0.89903003       0.12737000 </v>
    <v>       0.26940000       0.48635000       0.15558000 </v>
    <v>       0.92730999       0.54435003       0.17433000 </v>
    <v>       0.07192000       0.16391000       0.21296000 </v>
    <v>       0.72983003       0.22178000       0.23164999 </v>
    <v>       0.23014000       0.80936998       0.25995001 </v>
    <v>       0.57204998       0.86750001       0.27873999 </v>
    <v>       0.42747000       0.48705000       0.31737000 </v>
    <v>       0.76937002       0.54492998       0.33607000 </v>
    <v>       0.26947999       0.13225000       0.36427999 </v>
    <v>       0.92738998       0.19024999       0.38302001 </v>
   </varray>
  </structure>
  <varray name="forces" >
   <v>       0.09354007       0.11510842       0.09584961 </v>
   <v>      -0.17436407       0.10066330      -0.48633094 </v>
   <v>      -0.10579337       0.09158249      -0.44235300 </v>
   <v>       0.06485847       0.05412023      -0.14553843 </v>
   <v>      -0.04233504      -0.05371847       0.12519606 </v>
   <v>       0.11068013      -0.09947944       0.44714756 </v>
   <v>       0.17201974      -0.10916897       0.48257898 </v>
   <v>      -0.08001569      -0.13411731      -0.09498091 </v>
   <v>       0.12062936      -0.01893969       0.70839307 </v>
   <v>      -0.10532139      -0.22143585       0.59836582 </v>
   <v>      -0.00744972       0.13642895       0.41780051 </v>
   <v>      -0.02562591      -0.06348998       0.32377048 </v>
   <v>       0.11504534       0.04616753      -0.27948359 </v>
   <v>      -0.03354693       0.06508228      -0.15686069 </v>
   <v>      -0.18867665       0.10247765      -0.06686653 </v>
   <v>      -0.07311093       0.12213840      -0.10665181 </v>
   <v>       0.06487284      -0.12285360       0.10073736 </v>
   <v>       0.18376581      -0.08858636       0.08314444 </v>
   <v>       0.02215892      -0.07062944       0.15927583 </v>
   <v>      -0.11521869      -0.03521319       0.27875245 </v>
   <v>       0.01458072       0.06668964      -0.31417118 </v>
   <v>       0.00738072      -0.13883139      -0.42486954 </v>
   <v>       0.10414185       0.21822789      -0.59779527 </v>
   <v>      -0.12221559       0.03777692      -0.70511026 </v>
  </varray>
  <varray name="stress" >
   <v>     -29.46844852       0.85473218       0.65230305 </v>
   <v>       0.85473214     -21.44138432      -1.57268182 </v>
   <v>       0.65230296      -1.57268178     -11.59778891 </v>
  </varray>
  <energy>
   <i name="e_fr_energy">   -107.05183100 </i>
   <i name="e_wo_entrp">   -107.04902168 </i>
   <i name="e_0_energy">     -0.00561865 </i>
  </energy>
  <time name="totalsc">  479.93  481.19</time>
 </calculation>
 <calculation>
  <scstep>
   <time name="dav">   16.47   16.51</time>
   <time name="total">   17.36   17.40</time>
   <dipole>
    <v name="dipole">      0.00000000       0.00000000      -0.01607462 </v>
    <i name="Tr[quadrupol]">  -1929.21537904 </i>
    <i name="Echarged">      0.00000000 </i>
    <i name="Edipol_quadrupol">      0.00000000 </i>
    <i name="Eion">      0.00000000 </i>
   </dipole>
   <energy>
    <i name="alphaZ">    195.15517476 </i>
    <i name="ewald">  11962.32410964 </i>
    <i name="hartreedc"> -25879.48532788 </i>
    <i name="XCdc">   -919.27672681 </i>
    <i name="pawpsdc">  16741.59113493 </i>
    <i name="pawaedc"> -15292.18821166 </i>
    <i name="eentropy">     -0.00549824 </i>
    <i name="bandstr">   -301.48458211 </i>
    <i name="atom">  13386.29214936 </i>
    <i name="e_fr_energy">   -107.07777803 </i>
    <i name="e_wo_entrp">   -107.07227979 </i>
    <i name="e_0_energy">   -107.07502891 </i>
   </energy>
  </scstep>
  <scstep>
   <time name="diag">    2.67    2.68</time>
   <time name="diis">    9.29    9.31</time>
   <time name="orth">    0.56    0.56</time>
   <time name="total">   13.40   13.44</time>
   <dipole>
    <v name="dipole">      0.00000000       0.00000000      -0.01833052 </v>
    <i name="Tr[quadrupol]">  -1929.21933702 </i>
    <i name="Echarged">      0.00000000 </i>
    <i name="Edipol_quadrupol">      0.00000000 </i>
    <i name="Eion">      0.00000000 </i>
   </dipole>
   <energy>
    <i name="e_fr_energy">   -107.08007159 </i>
    <i name="e_wo_entrp">   -107.07456907 </i>
    <i name="e_0_energy">   -107.07732033 </i>
   </energy>
  </scstep>
  <scstep>
   <time name="diag">    2.67    2.68</time>
   <time name="diis">   12.70   12.73</time>
   <time name="orth">    0.56    0.56</time>
   <time name="total">   16.81   16.86</time>
   <dipole>
    <v name="dipole">      0.00000000       0.00000000      -0.01520075 </v>
    <i name="Tr[quadrupol]">  -1929.22032868 </i>
    <i name="Echarged">      0.00000000 </i>
    <i name="Edipol_quadrupol">      0.00000000 </i>
    <i name="Eion">      0.00000000 </i>
   </dipole>
   <energy>
    <i name="e_fr_energy">   -107.08007551 </i>
    <i name="e_wo_entrp">   -107.07456786 </i>
    <i name="e_0_energy">   -107.07732169 </i>
   </energy>
  </scstep>
  <scstep>
   <time name="diag">    2.67    2.68</time>
   <time name="diis">    5.99    6.00</time>
   <time name="orth">    0.55    0.56</time>
   <time name="total">   10.10   10.13</time>
   <dipole>
    <v name="dipole">      0.00000000       0.00000000      -0.01297596 </v>
    <i name="Tr[quadrupol]">  -1929.22203928 </i>
    <i name="Echarged">      0.00000000 </i>
    <i name="Edipol_quadrupol">      0.00000000 </i>
    <i name="Eion">      0.00000000 </i>
   </dipole>
   <energy>
    <i name="e_fr_energy">   -107.08003019 </i>
    <i name="e_wo_entrp">   -107.07451863 </i>
    <i name="e_0_energy">   -107.07727441 </i>
   </energy>
  </scstep>
  <scstep>
   <time name="diag">    2.67    2.68</time>
   <time name="diis">    8.88    8.90</time>
   <time name="orth">    0.55    0.55</time>
   <time name="total">   12.99   13.02</time>
   <dipole>
    <v name="dipole">      0.00000000       0.00000000      -0.00920593 </v>
    <i name="Tr[quadrupol]">  -1929.22784483 </i>
    <i name="Echarged">      0.00000000 </i>
    <i name="Edipol_quadrupol">      0.00000000 </i>
    <i name="Eion">      0.00000000 </i>
   </dipole>
   <energy>
    <i name="e_fr_energy">   -107.08008123 </i>
    <i name="e_wo_entrp">   -107.07456226 </i>
    <i name="e_0_energy">   -107.07732175 </i>
   </energy>
  </scstep>
  <scstep>
   <time name="diag">    2.67    2.67</time>
   <time name="diis">    8.21    8.23</time>
   <time name="orth">    0.55    0.55</time>
   <time name="total">   12.31   12.34</time>
   <dipole>
    <v name="dipole">      0.00000000       0.00000000      -0.00870833 </v>
    <i name="Tr[quadrupol]">  -1929.23285723 </i>
    <i name="Echarged">      0.00000000 </i>
    <i name="Edipol_quadrupol">      0.00000000 </i>
    <i name="Eion">      0.00000000 </i>
   </dipole>
   <energy>
    <i name="e_fr_energy">   -107.08014846 </i>
    <i name="e_wo_entrp">   -107.07462809 </i>
    <i name="e_0_energy">   -107.07738828 </i>
   </energy>
  </scstep>
  <scstep>
   <time name="diag">    2.67    2.68</time>
   <time name="diis">    5.39    5.41</time>
   <time name="orth">    0.56    0.56</time>
   <time name="total">    9.51    9.54</time>
   <dipole>
    <v name="dipole">      0.00000000       0.00000000      -0.00852387 </v>
    <i name="Tr[quadrupol]">  -1929.23576518 </i>
    <i name="Echarged">      0.00000000 </i>
    <i name="Edipol_quadrupol">      0.00000000 </i>
    <i name="Eion">      0.00000000 </i>
   </dipole>
   <energy>
    <i name="e_fr_energy">   -107.08019920 </i>
    <i name="e_wo_entrp">   -107.07467992 </i>
    <i name="e_0_energy">   -107.07743956 </i>
   </energy>
  </scstep>
  <scstep>
   <time name="diag">    2.66    2.67</time>
   <time name="diis">    5.74    5.76</time>
   <time name="orth">    0.56    0.56</time>
   <time name="total">    9.85    9.87</time>
   <dipole>
    <v name="dipole">      0.00000000       0.00000000      -0.00782606 </v>
    <i name="Tr[quadrupol]">  -1929.24253765 </i>
    <i name="Echarged">      0.00000000 </i>
    <i name="Edipol_quadrupol">      0.00000000 </i>
    <i name="Eion">      0.00000000 </i>
   </dipole>
   <energy>
    <i name="e_fr_energy">   -107.08031527 </i>
    <i name="e_wo_entrp">   -107.07479795 </i>
    <i name="e_0_energy">   -107.07755661 </i>
   </energy>
  </scstep>
  <scstep>
   <time name="diag">    2.68    2.68</time>
   <time name="diis">    5.43    5.44</time>
   <time name="orth">    0.56    0.56</time>
   <time name="total">    9.54    9.57</time>
   <dipole>
    <v name="dipole">      0.00000000       0.00000000      -0.00767092 </v>
    <i name="Tr[quadrupol]">  -1929.24626863 </i>
    <i name="Echarged">      0.00000000 </i>
    <i name="Edipol_quadrupol">      0.00000000 </i>
    <i name="Eion">      0.00000000 </i>
   </dipole>
   <energy>
    <i name="e_fr_energy">   -107.08037050 </i>
    <i name="e_wo_entrp">   -107.07485221 </i>
    <i name="e_0_energy">   -107.07761136 </i>
   </energy>
  </scstep>
  <scstep>
   <time name="diag">    2.67    2.67</time>
   <time name="diis">    5.87    5.88</time>
   <time name="orth">    0.56    0.56</time>
   <time name="total">    9.98   10.01</time>
   <dipole>
    <v name="dipole">      0.00000000       0.00000000      -0.00410331 </v>
    <i name="Tr[quadrupol]">  -1929.25400322 </i>
    <i name="Echarged">      0.00000000 </i>
    <i name="Edipol_quadrupol">      0.00000000 </i>
    <i name="Eion">      0.00000000 </i>
   </dipole>
   <energy>
    <i name="e_fr_energy">   -107.08049506 </i>
    <i name="e_wo_entrp">   -107.07497567 </i>
    <i name="e_0_energy">   -107.07773536 </i>
   </energy>
  </scstep>
  <scstep>
   <time name="diag">    2.67    2.68</time>
   <time name="diis">    5.49    5.50</time>
   <time name="orth">    0.55    0.56</time>
   <time name="total">    9.60    9.62</time>
   <dipole>
    <v name="dipole">      0.00000000       0.00000000      -0.00447461 </v>
    <i name="Tr[quadrupol]">  -1929.25567226 </i>
    <i name="Echarged">      0.00000000 </i>
    <i name="Edipol_quadrupol">      0.00000000 </i>
    <i name="Eion">      0.00000000 </i>
   </dipole>
   <energy>
    <i name="e_fr_energy">   -107.08051039 </i>
    <i name="e_wo_entrp">   -107.07499088 </i>
    <i name="e_0_energy">   -107.07775063 </i>
   </energy>
  </scstep>
  <scstep>
   <time name="diag">    2.68    2.68</time>
   <time name="diis">    5.65    5.66</time>
   <time name="orth">    0.56    0.56</time>
   <time name="total">    9.78    9.80</time>
   <dipole>
    <v name="dipole">      0.00000000       0.00000000      -0.00481877 </v>
    <i name="Tr[quadrupol]">  -1929.26282674 </i>
    <i name="Echarged">      0.00000000 </i>
    <i name="Edipol_quadrupol">      0.00000000 </i>
    <i name="Eion">      0.00000000 </i>
   </dipole>
   <energy>
    <i name="e_fr_energy">   -107.08059715 </i>
    <i name="e_wo_entrp">   -107.07507647 </i>
    <i name="e_0_energy">   -107.07783681 </i>
   </energy>
  </scstep>
  <scstep>
   <time name="diag">    2.67    2.68</time>
   <time name="diis">    5.57    5.58</time>
   <time name="orth">    0.55    0.55</time>
   <time name="total">    9.69    9.71</time>
   <dipole>
    <v name="dipole">      0.00000000       0.00000000      -0.00260169 </v>
    <i name="Tr[quadrupol]">  -1929.26915445 </i>
    <i name="Echarged">      0.00000000 </i>
    <i name="Edipol_quadrupol">      0.00000000 </i>
    <i name="Eion">      0.00000000 </i>
   </dipole>
   <energy>
    <i name="e_fr_energy">   -107.08067338 </i>
    <i name="e_wo_entrp">   -107.07515259 </i>
    <i name="e_0_energy">   -107.07791299 </i>
   </energy>
  </scstep>
  <scstep>
   <time name="diag">    2.68    2.69</time>
   <time name="diis">    5.04    5.05</time>
   <time name="orth">    0.56    0.56</time>
   <time name="total">    9.16    9.19</time>
   <dipole>
    <v name="dipole">      0.00000000       0.00000000      -0.00281648 </v>
    <i name="Tr[quadrupol]">  -1929.27383685 </i>
    <i name="Echarged">      0.00000000 </i>
    <i name="Edipol_quadrupol">      0.00000000 </i>
    <i name="Eion">      0.00000000 </i>
   </dipole>
   <energy>
    <i name="e_fr_energy">   -107.08072050 </i>
    <i name="e_wo_entrp">   -107.07520004 </i>
    <i name="e_0_energy">   -107.07796027 </i>
   </energy>
  </scstep>
  <scstep>
   <time name="diag">    2.67    2.68</time>
   <time name="diis">    5.75    5.76</time>
   <time name="orth">    0.56    0.56</time>
   <time name="total">    9.86    9.89</time>
   <dipole>
    <v name="dipole">      0.00000000       0.00000000      -0.00118219 </v>
    <i name="Tr[quadrupol]">  -1929.28336136 </i>
    <i name="Echarged">      0.00000000 </i>
    <i name="Edipol_quadrupol">      0.00000000 </i>
    <i name="Eion">      0.00000000 </i>
   </dipole>
   <energy>
    <i name="e_fr_energy">   -107.08080378 </i>
    <i name="e_wo_entrp">   -107.07528311 </i>
    <i name="e_0_energy">   -107.07804344 </i>
   </energy>
  </scstep>
  <scstep>
   <time name="diag">    2.67    2.68</time>
   <time name="diis">    4.14    4.15</time>
   <time name="orth">    0.56    0.56</time>
   <time name="total">    8.26    8.28</time>
   <dipole>
    <v name="dipole">      0.00000000       0.00000000      -0.00119562 </v>
    <i name="Tr[quadrupol]">  -1929.28517234 </i>
    <i name="Echarged">      0.00000000 </i>
    <i name="Edipol_quadrupol">      0.00000000 </i>
    <i name="Eion">      0.00000000 </i>
   </dipole>
   <energy>
    <i name="e_fr_energy">   -107.08081640 </i>
    <i name="e_wo_entrp">   -107.07529552 </i>
    <i name="e_0_energy">   -107.07805596 </i>
   </energy>
  </scstep>
  <scstep>
   <time name="diag">    2.67    2.68</time>
   <time name="diis">    5.85    5.87</time>
   <time name="orth">    0.55    0.55</time>
   <time name="total">    9.96    9.99</time>
   <dipole>
    <v name="dipole">      0.00000000       0.00000000      -0.00144301 </v>
    <i name="Tr[quadrupol]">  -1929.29681893 </i>
    <i name="Echarged">      0.00000000 </i>
    <i name="Edipol_quadrupol">      0.00000000 </i>
    <i name="Eion">      0.00000000 </i>
   </dipole>
   <energy>
    <i name="e_fr_energy">   -107.08088228 </i>
    <i name="e_wo_entrp">   -107.07536022 </i>
    <i name="e_0_energy">   -107.07812125 </i>
   </energy>
  </scstep>
  <scstep>
   <time name="diag">    2.67    2.67</time>
   <time name="diis">    5.14    5.15</time>
   <time name="orth">    0.55    0.55</time>
   <time name="total">    8.54    8.56</time>
   <dipole>
    <v name="dipole">      0.00000000       0.00000000      -0.00118331 </v>
    <i name="Tr[quadrupol]">  -1929.29859699 </i>
    <i name="Echarged">      0.00000000 </i>
    <i name="Edipol_quadrupol">      0.00000000 </i>
    <i name="Eion">      0.00000000 </i>
   </dipole>
   <energy>
    <i name="alphaZ">    195.01659072 </i>
    <i name="ewald">  11962.32410964 </i>
    <i name="hartreedc"> -25879.95915105 </i>
    <i name="XCdc">   -919.28505157 </i>
    <i name="pawpsdc">  16744.78059209 </i>
    <i name="pawaedc"> -15295.45398089 </i>
    <i name="eentropy">     -0.00552203 </i>
    <i name="bandstr">   -300.79062358 </i>
    <i name="atom">  13386.29214936 </i>
    <i name="e_fr_energy">   -107.08088732 </i>
    <i name="e_wo_entrp">   -107.07536529 </i>
    <i name="e_0_energy">   -107.07812631 </i>
   </energy>
  </scstep>
  <structure>
   <crystal>
    <varray name="basis" >
     <v>       8.39290047       0.00000000       0.00000000 </v>
     <v>       0.00200147       7.12359972       0.00000000 </v>
     <v>       0.00000000       0.00000000      16.32399940 </v>
    </varray>
    <i name="volume">    975.97378269 </i>
    <varray name="rec_basis" >
     <v>       0.11914832      -0.00003348       0.00000000 </v>
     <v>       0.00000000       0.14037847       0.00000000 </v>
     <v>       0.00000000       0.00000000       0.06125950 </v>
    </varray>
   </crystal>
   <varray name="positions" >
    <v>       0.39873999       0.50483000       0.00000000 </v>
    <v>       0.89907002       0.23477000       0.07430000 </v>
    <v>       0.10028000       0.82758999       0.10429000 </v>
    <v>       0.60031003       0.55791998       0.17871000 </v>
    <v>       0.39874704       0.15062086       0.20881100 </v>
    <v>       0.89934092       0.88046790       0.28338645 </v>
    <v>       0.10065668       0.47326820       0.31340785 </v>
    <v>       0.60025210       0.20354752       0.38732581 </v>
    <v>       0.07184000       0.51801002       0.00426000 </v>
    <v>       0.72974998       0.57587999       0.02296000 </v>
    <v>       0.23006000       0.16347000       0.05126000 </v>
    <v>       0.57196999       0.22160000       0.07004000 </v>
    <v>       0.42738000       0.84114999       0.10867000 </v>
    <v>       0.76928997       0.89903003       0.12737000 </v>
    <v>       0.26940000       0.48635000       0.15558000 </v>
    <v>       0.92730999       0.54435003       0.17433000 </v>
    <v>       0.07203193       0.16366040       0.21304932 </v>
    <v>       0.73014696       0.22160002       0.23172371 </v>
    <v>       0.23017825       0.80922649       0.26009123 </v>
    <v>       0.57185131       0.86742847       0.27898713 </v>
    <v>       0.42749511       0.48718549       0.31709145 </v>
    <v>       0.76938281       0.54464792       0.33569331 </v>
    <v>       0.26965947       0.13269336       0.36374998 </v>
    <v>       0.92717921       0.19032674       0.38239487 </v>
   </varray>
  </structure>
  <varray name="forces" >
   <v>       0.09252458       0.11302987       0.09899289 </v>
   <v>      -0.17244670       0.09858136      -0.47918129 </v>
   <v>      -0.10670517       0.09046073      -0.43227775 </v>
   <v>       0.07183028       0.05485138      -0.15781607 </v>
   <v>      -0.01978771      -0.05420232       0.08952184 </v>
   <v>       0.10328487      -0.11200322       0.40342887 </v>
   <v>       0.17064663      -0.08149087       0.44393201 </v>
   <v>      -0.08252281      -0.12568165      -0.09564742 </v>
   <v>       0.12055712      -0.01993746       0.70829142 </v>
   <v>      -0.10621555      -0.22166971       0.60033192 </v>
   <v>      -0.00751401       0.13477801       0.42111991 </v>
   <v>      -0.02789957      -0.06564771       0.33163993 </v>
   <v>       0.11447070       0.04695861      -0.27602386 </v>
   <v>      -0.02868720       0.06302205      -0.14040357 </v>
   <v>      -0.19393060       0.10047087      -0.06655987 </v>
   <v>      -0.05924978       0.11864294      -0.09421740 </v>
   <v>       0.05642810      -0.11511882       0.08219367 </v>
   <v>       0.15977813      -0.08911760       0.06049511 </v>
   <v>       0.01871986      -0.08278580       0.14947196 </v>
   <v>      -0.10730336      -0.03608001       0.27097842 </v>
   <v>       0.02531840       0.06379730      -0.29786713 </v>
   <v>       0.00645946      -0.12799403      -0.40355161 </v>
   <v>       0.09373578       0.20583618      -0.55456126 </v>
   <v>      -0.12149147       0.04129988      -0.66229073 </v>
  </varray>
  <varray name="stress" >
   <v>     -29.51144543       0.90351444       0.59823418 </v>
   <v>       0.90351446     -21.42909760      -1.52453868 </v>
   <v>       0.59823419      -1.52453868     -11.62619617 </v>
  </varray>
  <energy>
   <i name="e_fr_energy">   -107.08088732 </i>
   <i name="e_wo_entrp">   -107.07812631 </i>
   <i name="e_0_energy">     -0.00552203 </i>
  </energy>
  <time name="totalsc">  212.24  212.79</time>
 </calculation>
 <calculation>
  <scstep>
   <time name="dav">   15.26   15.30</time>
   <time name="total">   16.14   16.19</time>
   <dipole>
    <v name="dipole">      0.00000000       0.00000000      -0.00074404 </v>
    <i name="Tr[quadrupol]">  -1932.86142073 </i>
    <i name="Echarged">      0.00000000 </i>
    <i name="Edipol_quadrupol">      0.00000000 </i>
    <i name="Eion">      0.00000000 </i>
   </dipole>
   <energy>
    <i name="alphaZ">    195.01520838 </i>
    <i name="ewald">  12212.90545393 </i>
    <i name="hartreedc"> -26130.03145040 </i>
    <i name="XCdc">   -919.00680108 </i>
    <i name="pawpsdc">  16744.76003801 </i>
    <i name="pawaedc"> -15295.43251867 </i>
    <i name="eentropy">     -0.00544349 </i>
    <i name="bandstr">   -301.52037331 </i>
    <i name="atom">  13386.29214936 </i>
    <i name="e_fr_energy">   -107.02373727 </i>
    <i name="e_wo_entrp">   -107.01829378 </i>
    <i name="e_0_energy">   -107.02101553 </i>
   </energy>
  </scstep>
  <scstep>
   <time name="diag">    2.66    2.67</time>
   <time name="diis">    9.26    9.28</time>
   <time name="orth">    0.56    0.56</time>
   <time name="total">   13.36   13.40</time>
   <dipole>
    <v name="dipole">      0.00000000       0.00000000      -0.00651313 </v>
    <i name="Tr[quadrupol]">  -1932.87726709 </i>
    <i name="Echarged">      0.00000000 </i>
    <i name="Edipol_quadrupol">      0.00000000 </i>
    <i name="Eion">      0.00000000 </i>
   </dipole>
   <energy>
    <i name="e_fr_energy">   -107.24211860 </i>
    <i name="e_wo_entrp">   -107.23661063 </i>
    <i name="e_0_energy">   -107.23936461 </i>
   </energy>
  </scstep>
  <scstep>
   <time name="diag">    2.67    2.68</time>
   <time name="diis">   12.74   12.77</time>
   <time name="orth">    0.56    0.56</time>
   <time name="total">   16.85   16.90</time>
   <dipole>
    <v name="dipole">      0.00000000       0.00000000      -0.01039814 </v>
    <i name="Tr[quadrupol]">  -1932.89057787 </i>
    <i name="Echarged">      0.00000000 </i>
    <i name="Edipol_quadrupol">      0.00000000 </i>
    <i name="Eion">      0.00000000 </i>
   </dipole>
   <energy>
    <i name="e_fr_energy">   -107.25755151 </i>
    <i name="e_wo_entrp">   -107.25199743 </i>
    <i name="e_0_energy">   -107.25477447 </i>
   </energy>
  </scstep>
  <scstep>
   <time name="diag">    2.66    2.67</time>
   <time name="diis">    9.41    9.44</time>
   <time name="orth">    0.55    0.56</time>
   <time name="total">   13.50   13.54</time>
   <dipole>
    <v name="dipole">      0.00000000       0.00000000      -0.01159473 </v>
    <i name="Tr[quadrupol]">  -1932.90126804 </i>
    <i name="Echarged">      0.00000000 </i>
    <i name="Edipol_quadrupol">      0.00000000 </i>
    <i name="Eion">      0.00000000 </i>
   </dipole>
   <energy>
    <i name="e_fr_energy">   -107.25497832 </i>
    <i name="e_wo_entrp">   -107.24938307 </i>
    <i name="e_0_energy">   -107.25218069 </i>
   </energy>
  </scstep>
  <scstep>
   <time name="diag">    2.67    2.68</time>
   <time name="diis">    8.97    9.00</time>
   <time name="orth">    0.55    0.56</time>
   <time name="total">   13.08   13.11</time>
   <dipole>
    <v name="dipole">      0.00000000       0.00000000      -0.01322745 </v>
    <i name="Tr[quadrupol]">  -1932.93600593 </i>
    <i name="Echarged">      0.00000000 </i>
    <i name="Edipol_quadrupol">      0.00000000 </i>
    <i name="Eion">      0.00000000 </i>
   </dipole>
   <energy>
    <i name="e_fr_energy">   -107.24998625 </i>
    <i name="e_wo_entrp">   -107.24427071 </i>
    <i name="e_0_energy">   -107.24712848 </i>
   </energy>
  </scstep>
  <scstep>
   <time name="diag">    2.67    2.68</time>
   <time name="diis">    9.02    9.06</time>
   <time name="orth">    0.55    0.56</time>
   <time name="total">   13.13   13.18</time>
   <dipole>
    <v name="dipole">      0.00000000       0.00000000      -0.00972985 </v>
    <i name="Tr[quadrupol]">  -1932.94426534 </i>
    <i name="Echarged">      0.00000000 </i>
    <i name="Edipol_quadrupol">      0.00000000 </i>
    <i name="Eion">      0.00000000 </i>
   </dipole>
   <energy>
    <i name="e_fr_energy">   -107.24892874 </i>
    <i name="e_wo_entrp">   -107.24322752 </i>
    <i name="e_0_energy">   -107.24607813 </i>
   </energy>
  </scstep>
  <scstep>
   <time name="diag">    2.67    2.68</time>
   <time name="diis">    9.20    9.23</time>
   <time name="orth">    0.56    0.56</time>
   <time name="total">   13.32   13.36</time>
   <dipole>
    <v name="dipole">      0.00000000       0.00000000      -0.00875318 </v>
    <i name="Tr[quadrupol]">  -1932.94497783 </i>
    <i name="Echarged">      0.00000000 </i>
    <i name="Edipol_quadrupol">      0.00000000 </i>
    <i name="Eion">      0.00000000 </i>
   </dipole>
   <energy>
    <i name="e_fr_energy">   -107.24874722 </i>
    <i name="e_wo_entrp">   -107.24308120 </i>
    <i name="e_0_energy">   -107.24591421 </i>
   </energy>
  </scstep>
  <scstep>
   <time name="diag">    2.67    2.68</time>
   <time name="diis">    9.03    9.05</time>
   <time name="orth">    0.56    0.56</time>
   <time name="total">   13.14   13.18</time>
   <dipole>
    <v name="dipole">      0.00000000       0.00000000      -0.01057953 </v>
    <i name="Tr[quadrupol]">  -1932.94753465 </i>
    <i name="Echarged">      0.00000000 </i>
    <i name="Edipol_quadrupol">      0.00000000 </i>
    <i name="Eion">      0.00000000 </i>
   </dipole>
   <energy>
    <i name="e_fr_energy">   -107.24864928 </i>
    <i name="e_wo_entrp">   -107.24299607 </i>
    <i name="e_0_energy">   -107.24582267 </i>
   </energy>
  </scstep>
  <scstep>
   <time name="diag">    2.67    2.68</time>
   <time name="diis">    9.22    9.25</time>
   <time name="orth">    0.56    0.57</time>
   <time name="total">   13.35   13.38</time>
   <dipole>
    <v name="dipole">      0.00000000       0.00000000      -0.01073406 </v>
    <i name="Tr[quadrupol]">  -1932.95226262 </i>
    <i name="Echarged">      0.00000000 </i>
    <i name="Edipol_quadrupol">      0.00000000 </i>
    <i name="Eion">      0.00000000 </i>
   </dipole>
   <energy>
    <i name="e_fr_energy">   -107.24850897 </i>
    <i name="e_wo_entrp">   -107.24287173 </i>
    <i name="e_0_energy">   -107.24569035 </i>
   </energy>
  </scstep>
  <scstep>
   <time name="diag">    2.67    2.68</time>
   <time name="diis">    9.02    9.05</time>
   <time name="orth">    0.56    0.56</time>
   <time name="total">   13.15   13.18</time>
   <dipole>
    <v name="dipole">      0.00000000       0.00000000      -0.01096284 </v>
    <i name="Tr[quadrupol]">  -1932.95404007 </i>
    <i name="Echarged">      0.00000000 </i>
    <i name="Edipol_quadrupol">      0.00000000 </i>
    <i name="Eion">      0.00000000 </i>
   </dipole>
   <energy>
    <i name="e_fr_energy">   -107.24846697 </i>
    <i name="e_wo_entrp">   -107.24281488 </i>
    <i name="e_0_energy">   -107.24564092 </i>
   </energy>
  </scstep>
  <scstep>
   <time name="diag">    2.67    2.67</time>
   <time name="diis">    7.02    7.04</time>
   <time name="orth">    0.56    0.56</time>
   <time name="total">   10.42   10.45</time>
   <dipole>
    <v name="dipole">      0.00000000       0.00000000      -0.01080496 </v>
    <i name="Tr[quadrupol]">  -1932.95190874 </i>
    <i name="Echarged">      0.00000000 </i>
    <i name="Edipol_quadrupol">      0.00000000 </i>
    <i name="Eion">      0.00000000 </i>
   </dipole>
   <energy>
    <i name="alphaZ">    195.03853425 </i>
    <i name="ewald">  12212.90545393 </i>
    <i name="hartreedc"> -26129.52625318 </i>
    <i name="XCdc">   -919.07146213 </i>
    <i name="pawpsdc">  16783.95606791 </i>
    <i name="pawaedc"> -15335.30621786 </i>
    <i name="eentropy">     -0.00565220 </i>
    <i name="bandstr">   -301.53107816 </i>
    <i name="atom">  13386.29214936 </i>
    <i name="e_fr_energy">   -107.24845809 </i>
    <i name="e_wo_entrp">   -107.24280589 </i>
    <i name="e_0_energy">   -107.24563199 </i>
   </energy>
  </scstep>
  <structure>
   <crystal>
    <varray name="basis" >
     <v>       8.39290047       0.00000000       0.00000000 </v>
     <v>       0.00200147       7.12359972       0.00000000 </v>
     <v>       0.00000000       0.00000000      16.32399940 </v>
    </varray>
    <i name="volume">    975.97378269 </i>
    <varray name="rec_basis" >
     <v>       0.11914832      -0.00003348       0.00000000 </v>
     <v>       0.00000000       0.14037847       0.00000000 </v>
     <v>       0.00000000       0.00000000       0.06125950 </v>
    </varray>
   </crystal>
   <varray name="positions" >
    <v>       0.39873999       0.50483000       0.00000000 </v>
    <v>       0.89907002       0.23477000       0.07430000 </v>
    <v>       0.10028000       0.82758999       0.10429000 </v>
    <v>       0.60031003       0.55791998       0.17871000 </v>
    <v>       0.39839316       0.14947793       0.20963476 </v>
    <v>       0.90119001       0.87810617       0.28709873 </v>
    <v>       0.10371121       0.47154986       0.31749283 </v>
    <v>       0.59877580       0.20089736       0.38644567 </v>
    <v>       0.07184000       0.51801002       0.00426000 </v>
    <v>       0.72974998       0.57587999       0.02296000 </v>
    <v>       0.23006000       0.16347000       0.05126000 </v>
    <v>       0.57196999       0.22160000       0.07004000 </v>
    <v>       0.42738000       0.84114999       0.10867000 </v>
    <v>       0.76928997       0.89903003       0.12737000 </v>
    <v>       0.26940000       0.48635000       0.15558000 </v>
    <v>       0.92730999       0.54435003       0.17433000 </v>
    <v>       0.07304242       0.16123297       0.21380565 </v>
    <v>       0.73300701       0.21972086       0.23228038 </v>
    <v>       0.23051370       0.80748084       0.26146664 </v>
    <v>       0.56993105       0.86666767       0.28148063 </v>
    <v>       0.42794792       0.48853074       0.31435053 </v>
    <v>       0.76949906       0.54194900       0.33197990 </v>
    <v>       0.27133605       0.13703369       0.35864701 </v>
    <v>       0.92500463       0.19119761       0.37630058 </v>
   </varray>
  </structure>
  <varray name="forces" >
   <v>       0.09061762       0.10341567       0.11614006 </v>
   <v>      -0.15518952       0.08235637      -0.42698644 </v>
   <v>      -0.11683186       0.08901877      -0.34658632 </v>
   <v>       0.14505045       0.07774111      -0.30471685 </v>
   <v>       0.18823699      -0.04971980      -0.28849231 </v>
   <v>       0.00763627      -0.25805857       0.05863727 </v>
   <v>       0.12258549       0.17299999       0.06934643 </v>
   <v>      -0.07752808      -0.05233619      -0.08300237 </v>
   <v>       0.12602608      -0.02441005       0.71546234 </v>
   <v>      -0.11439274      -0.21556369       0.60988636 </v>
   <v>      -0.00546558       0.13148458       0.44132719 </v>
   <v>      -0.04259191      -0.07824256       0.39388397 </v>
   <v>       0.11112454       0.05682842      -0.24471588 </v>
   <v>       0.00944943       0.04625517      -0.00824158 </v>
   <v>      -0.24647455       0.08450130      -0.07869977 </v>
   <v>       0.06266595       0.09600492      -0.01740750 </v>
   <v>      -0.04521820      -0.05365867      -0.10813764 </v>
   <v>       0.02145079      -0.14863379      -0.16889876 </v>
   <v>      -0.03090023      -0.12884901       0.04566441 </v>
   <v>      -0.00322447      -0.01528605       0.17324329 </v>
   <v>       0.08449539       0.06519679      -0.08792347 </v>
   <v>      -0.01876342      -0.05022032      -0.18612046 </v>
   <v>       0.01371011       0.05045094      -0.04102940 </v>
   <v>      -0.12646851       0.01872463      -0.23263255 </v>
  </varray>
  <varray name="stress" >
   <v>     -28.18284289       1.41400751      -0.11846978 </v>
   <v>       1.41400752     -19.66127316      -1.16140643 </v>
   <v>      -0.11846973      -1.16140642      -9.58751693 </v>
  </varray>
  <energy>
   <i name="e_fr_energy">   -107.24845809 </i>
   <i name="e_wo_entrp">   -107.24563199 </i>
   <i name="e_0_energy">     -0.00565220 </i>
  </energy>
  <time name="totalsc">  165.12  165.62</time>
 </calculation>
 <calculation>
  <scstep>
   <time name="dav">   16.46   16.51</time>
   <time name="total">   17.34   17.40</time>
   <dipole>
    <v name="dipole">      0.00000000       0.00000000      -0.01042430 </v>
    <i name="Tr[quadrupol]">  -1933.20667219 </i>
    <i name="Echarged">      0.00000000 </i>
    <i name="Edipol_quadrupol">      0.00000000 </i>
    <i name="Eion">      0.00000000 </i>
   </dipole>
   <energy>
    <i name="alphaZ">    195.03755488 </i>
    <i name="ewald">  12211.84626728 </i>
    <i name="hartreedc"> -26128.45385925 </i>
    <i name="XCdc">   -919.07607240 </i>
    <i name="pawpsdc">  16783.93492599 </i>
    <i name="pawaedc"> -15335.29177189 </i>
    <i name="eentropy">     -0.00566718 </i>
    <i name="bandstr">   -301.53686297 </i>
    <i name="atom">  13386.29214936 </i>
[...]
       <r>   -2.3137    1.0000 </r>
       <r>   -2.2895    1.0000 </r>
       <r>   -2.2278    1.0000 </r>
       <r>   -2.1424    1.0000 </r>
       <r>   -2.0851    1.0000 </r>
       <r>   -2.0685    1.0000 </r>
       <r>   -2.0461    1.0000 </r>
       <r>   -2.0138    1.0000 </r>
       <r>   -1.9849    1.0000 </r>
       <r>   -1.9472    1.0000 </r>
       <r>   -1.9065    1.0000 </r>
       <r>   -1.8488    1.0000 </r>
       <r>   -1.7518    1.0000 </r>
       <r>   -1.7125    1.0000 </r>
       <r>   -1.6943    1.0000 </r>
       <r>   -1.6713    1.0000 </r>
       <r>   -1.6146    1.0000 </r>
       <r>   -1.5663    1.0000 </r>
       <r>   -1.5174    1.0000 </r>
       <r>   -1.4806    1.0000 </r>
       <r>   -1.4372    1.0000 </r>
       <r>   -1.4169    1.0000 </r>
       <r>   -1.3798    1.0000 </r>
       <r>   -1.3540    1.0000 </r>
       <r>   -1.3060    1.0000 </r>
       <r>   -1.2777    1.0000 </r>
       <r>   -1.2513    1.0000 </r>
       <r>   -1.2278    1.0000 </r>
       <r>   -1.1898    1.0000 </r>
       <r>   -1.1565    1.0000 </r>
       <r>   -1.1173    1.0000 </r>
       <r>   -1.0741    1.0000 </r>
       <r>   -1.0397    1.0000 </r>
       <r>   -1.0169    1.0000 </r>
       <r>   -0.9681    1.0000 </r>
       <r>   -0.9209    1.0000 </r>
       <r>   -0.8997    1.0000 </r>
       <r>   -0.8645    1.0000 </r>
       <r>   -0.8426    1.0000 </r>
       <r>   -0.8036    1.0000 </r>
       <r>   -0.7744    1.0000 </r>
       <r>   -0.7443    1.0000 </r>
       <r>   -0.7163    1.0000 </r>
       <r>   -0.6923    1.0000 </r>
       <r>   -0.6461    1.0000 </r>
       <r>   -0.5966    1.0000 </r>
       <r>   -0.5483    1.0000 </r>
       <r>   -0.5077    1.0000 </r>
       <r>   -0.4777    1.0000 </r>
       <r>   -0.4483    1.0000 </r>
       <r>   -0.3802    1.0000 </r>
       <r>   -0.3585    1.0000 </r>
       <r>   -0.3406    1.0000 </r>
       <r>   -0.3059    1.0000 </r>
       <r>   -0.2793    1.0000 </r>
       <r>   -0.2445    1.0000 </r>
       <r>   -0.2264    1.0000 </r>
       <r>   -0.2020    1.0000 </r>
       <r>   -0.1675    1.0000 </r>
       <r>   -0.1295    1.0000 </r>
       <r>   -0.1081    1.0000 </r>
       <r>   -0.0531    1.0000 </r>
       <r>    0.0192    1.0000 </r>
       <r>    0.0957    1.0000 </r>
       <r>    0.1626    1.0000 </r>
       <r>    0.1739    1.0000 </r>
       <r>    0.2874    1.0000 </r>
       <r>    0.2924    1.0000 </r>
       <r>    0.5324    1.0000 </r>
       <r>    0.6875    1.0000 </r>
       <r>    0.8692    1.0000 </r>
       <r>    1.1785    0.0000 </r>
       <r>    1.3813    0.0000 </r>
       <r>    1.8630    0.0000 </r>
       <r>    2.0527    0.0000 </r>
       <r>    2.4749    0.0000 </r>
       <r>    2.5807    0.0000 </r>
       <r>    3.1366    0.0000 </r>
       <r>    3.3218    0.0000 </r>
       <r>    3.6249    0.0000 </r>
       <r>    3.7119    0.0000 </r>
       <r>    3.9492    0.0000 </r>
       <r>    4.0885    0.0000 </r>
       <r>    4.4291    0.0000 </r>
       <r>    4.6467    0.0000 </r>
       <r>    4.7298    0.0000 </r>
       <r>    4.9943    0.0000 </r>
       <r>    5.0831    0.0000 </r>
       <r>    5.1981    0.0000 </r>
       <r>    5.3885    0.0000 </r>
       <r>    5.5713    0.0000 </r>
       <r>    5.6385    0.0000 </r>
       <r>    5.7838    0.0000 </r>
       <r>    5.8366    0.0000 </r>
       <r>    6.0429    0.0000 </r>
       <r>    6.1884    0.0000 </r>
       <r>    6.3357    0.0000 </r>
      </set>
      <set comment="kpoint 9">
       <r>   -6.7131    1.0000 </r>
       <r>   -6.2230    1.0000 </r>
       <r>   -5.6420    1.0000 </r>
       <r>   -5.5589    1.0000 </r>
       <r>   -5.0543    1.0000 </r>
       <r>   -4.9922    1.0000 </r>
       <r>   -4.7769    1.0000 </r>
       <r>   -4.6242    1.0000 </r>
       <r>   -3.5465    1.0000 </r>
       <r>   -3.3256    1.0000 </r>
       <r>   -3.2645    1.0000 </r>
       <r>   -3.1320    1.0000 </r>
       <r>   -2.9961    1.0000 </r>
       <r>   -2.9321    1.0000 </r>
       <r>   -2.8621    1.0000 </r>
       <r>   -2.7976    1.0000 </r>
       <r>   -2.7233    1.0000 </r>
       <r>   -2.6710    1.0000 </r>
       <r>   -2.6478    1.0000 </r>
       <r>   -2.5321    1.0000 </r>
       <r>   -2.4638    1.0000 </r>
       <r>   -2.3923    1.0000 </r>
       <r>   -2.3557    1.0000 </r>
       <r>   -2.3213    1.0000 </r>
       <r>   -2.2597    1.0000 </r>
       <r>   -2.2359    1.0000 </r>
       <r>   -2.1613    1.0000 </r>
       <r>   -2.1351    1.0000 </r>
       <r>   -2.0928    1.0000 </r>
       <r>   -2.0586    1.0000 </r>
       <r>   -2.0361    1.0000 </r>
       <r>   -2.0137    1.0000 </r>
       <r>   -1.9485    1.0000 </r>
       <r>   -1.9029    1.0000 </r>
       <r>   -1.8367    1.0000 </r>
       <r>   -1.8071    1.0000 </r>
       <r>   -1.7654    1.0000 </r>
       <r>   -1.7064    1.0000 </r>
       <r>   -1.6790    1.0000 </r>
       <r>   -1.6479    1.0000 </r>
       <r>   -1.5891    1.0000 </r>
       <r>   -1.5612    1.0000 </r>
       <r>   -1.5226    1.0000 </r>
       <r>   -1.4824    1.0000 </r>
       <r>   -1.4492    1.0000 </r>
       <r>   -1.3903    1.0000 </r>
       <r>   -1.3389    1.0000 </r>
       <r>   -1.3082    1.0000 </r>
       <r>   -1.2824    1.0000 </r>
       <r>   -1.2476    1.0000 </r>
       <r>   -1.2224    1.0000 </r>
       <r>   -1.1701    1.0000 </r>
       <r>   -1.1278    1.0000 </r>
       <r>   -1.0641    1.0000 </r>
       <r>   -1.0328    1.0000 </r>
       <r>   -0.9823    1.0000 </r>
       <r>   -0.9638    1.0000 </r>
       <r>   -0.9330    1.0000 </r>
       <r>   -0.9011    1.0000 </r>
       <r>   -0.8615    1.0000 </r>
       <r>   -0.8292    1.0000 </r>
       <r>   -0.7938    1.0000 </r>
       <r>   -0.7659    1.0000 </r>
       <r>   -0.7494    1.0000 </r>
       <r>   -0.7223    1.0000 </r>
       <r>   -0.7110    1.0000 </r>
       <r>   -0.6663    1.0000 </r>
       <r>   -0.6274    1.0000 </r>
       <r>   -0.5770    1.0000 </r>
       <r>   -0.5506    1.0000 </r>
       <r>   -0.5112    1.0000 </r>
       <r>   -0.4901    1.0000 </r>
       <r>   -0.4565    1.0000 </r>
       <r>   -0.3994    1.0000 </r>
       <r>   -0.3604    1.0000 </r>
       <r>   -0.3239    1.0000 </r>
       <r>   -0.2988    1.0000 </r>
       <r>   -0.2560    1.0000 </r>
       <r>   -0.2209    1.0000 </r>
       <r>   -0.2011    1.0000 </r>
       <r>   -0.1699    1.0000 </r>
       <r>   -0.1302    1.0000 </r>
       <r>   -0.0743    1.0000 </r>
       <r>   -0.0486    1.0000 </r>
       <r>   -0.0063    1.0000 </r>
       <r>    0.0908    1.0000 </r>
       <r>    0.1513    1.0000 </r>
       <r>    0.2097    1.0000 </r>
       <r>    0.2748    1.0000 </r>
       <r>    0.4324    1.0000 </r>
       <r>    0.4910    1.0000 </r>
       <r>    0.6508    1.0000 </r>
       <r>    1.1027    0.0000 </r>
       <r>    1.1466    0.0000 </r>
       <r>    1.3576    0.0000 </r>
       <r>    1.4373    0.0000 </r>
       <r>    1.7216    0.0000 </r>
       <r>    2.0652    0.0000 </r>
       <r>    2.5539    0.0000 </r>
       <r>    2.6909    0.0000 </r>
       <r>    2.9289    0.0000 </r>
       <r>    3.0064    0.0000 </r>
       <r>    3.1425    0.0000 </r>
       <r>    3.3559    0.0000 </r>
       <r>    3.5879    0.0000 </r>
       <r>    3.8993    0.0000 </r>
       <r>    4.2219    0.0000 </r>
       <r>    4.3110    0.0000 </r>
       <r>    4.6396    0.0000 </r>
       <r>    4.9335    0.0000 </r>
       <r>    4.9891    0.0000 </r>
       <r>    5.1758    0.0000 </r>
       <r>    5.3362    0.0000 </r>
       <r>    5.4642    0.0000 </r>
       <r>    5.5881    0.0000 </r>
       <r>    5.7202    0.0000 </r>
       <r>    5.8236    0.0000 </r>
       <r>    6.0021    0.0000 </r>
       <r>    6.0794    0.0000 </r>
       <r>    6.2669    0.0000 </r>
      </set>
      <set comment="kpoint 10">
       <r>   -6.4718    1.0000 </r>
       <r>   -6.2797    1.0000 </r>
       <r>   -5.8102    1.0000 </r>
       <r>   -5.6504    1.0000 </r>
       <r>   -5.0725    1.0000 </r>
       <r>   -4.8875    1.0000 </r>
       <r>   -4.8165    1.0000 </r>
       <r>   -4.6431    1.0000 </r>
       <r>   -3.4877    1.0000 </r>
       <r>   -3.3370    1.0000 </r>
       <r>   -3.2687    1.0000 </r>
       <r>   -3.1682    1.0000 </r>
       <r>   -3.0816    1.0000 </r>
       <r>   -3.0409    1.0000 </r>
       <r>   -2.8788    1.0000 </r>
       <r>   -2.8348    1.0000 </r>
       <r>   -2.7815    1.0000 </r>
       <r>   -2.6913    1.0000 </r>
       <r>   -2.6231    1.0000 </r>
       <r>   -2.5698    1.0000 </r>
       <r>   -2.4498    1.0000 </r>
       <r>   -2.4176    1.0000 </r>
       <r>   -2.3969    1.0000 </r>
       <r>   -2.3286    1.0000 </r>
       <r>   -2.2798    1.0000 </r>
       <r>   -2.2453    1.0000 </r>
       <r>   -2.1823    1.0000 </r>
       <r>   -2.1142    1.0000 </r>
       <r>   -2.0962    1.0000 </r>
       <r>   -2.0644    1.0000 </r>
       <r>   -2.0552    1.0000 </r>
       <r>   -1.9854    1.0000 </r>
       <r>   -1.9585    1.0000 </r>
       <r>   -1.9202    1.0000 </r>
       <r>   -1.8697    1.0000 </r>
       <r>   -1.8518    1.0000 </r>
       <r>   -1.8027    1.0000 </r>
       <r>   -1.7375    1.0000 </r>
       <r>   -1.7029    1.0000 </r>
       <r>   -1.6693    1.0000 </r>
       <r>   -1.6398    1.0000 </r>
       <r>   -1.6004    1.0000 </r>
       <r>   -1.5571    1.0000 </r>
       <r>   -1.5190    1.0000 </r>
       <r>   -1.4567    1.0000 </r>
       <r>   -1.4230    1.0000 </r>
       <r>   -1.3923    1.0000 </r>
       <r>   -1.3283    1.0000 </r>
       <r>   -1.3070    1.0000 </r>
       <r>   -1.2166    1.0000 </r>
       <r>   -1.1489    1.0000 </r>
       <r>   -1.1296    1.0000 </r>
       <r>   -1.0777    1.0000 </r>
       <r>   -1.0495    1.0000 </r>
       <r>   -0.9714    1.0000 </r>
       <r>   -0.9563    1.0000 </r>
       <r>   -0.9216    1.0000 </r>
       <r>   -0.9053    1.0000 </r>
       <r>   -0.8730    1.0000 </r>
       <r>   -0.8326    1.0000 </r>
       <r>   -0.8025    1.0000 </r>
       <r>   -0.7762    1.0000 </r>
       <r>   -0.7605    1.0000 </r>
       <r>   -0.7408    1.0000 </r>
       <r>   -0.7069    1.0000 </r>
       <r>   -0.6527    1.0000 </r>
       <r>   -0.6448    1.0000 </r>
       <r>   -0.6330    1.0000 </r>
       <r>   -0.6039    1.0000 </r>
       <r>   -0.5520    1.0000 </r>
       <r>   -0.5370    1.0000 </r>
       <r>   -0.4953    1.0000 </r>
       <r>   -0.4293    1.0000 </r>
       <r>   -0.3978    1.0000 </r>
       <r>   -0.3274    1.0000 </r>
       <r>   -0.2987    1.0000 </r>
       <r>   -0.2659    1.0000 </r>
       <r>   -0.2577    1.0000 </r>
       <r>   -0.2217    1.0000 </r>
       <r>   -0.1929    1.0000 </r>
       <r>   -0.1722    1.0000 </r>
       <r>   -0.1367    1.0000 </r>
       <r>   -0.0667    1.0000 </r>
       <r>   -0.0483    1.0000 </r>
       <r>    0.0314    1.0000 </r>
       <r>    0.0988    1.0000 </r>
       <r>    0.2080    1.0000 </r>
       <r>    0.2785    1.0000 </r>
       <r>    0.5152    1.0000 </r>
       <r>    0.9210    0.9998 </r>
       <r>    0.9710    0.8898 </r>
       <r>    1.0215    0.1240 </r>
       <r>    1.1971    0.0000 </r>
       <r>    1.4418    0.0000 </r>
       <r>    1.5042    0.0000 </r>
       <r>    1.7418    0.0000 </r>
       <r>    1.8948    0.0000 </r>
       <r>    2.0212    0.0000 </r>
       <r>    2.0861    0.0000 </r>
       <r>    2.2395    0.0000 </r>
       <r>    2.3981    0.0000 </r>
       <r>    2.4095    0.0000 </r>
       <r>    3.1670    0.0000 </r>
       <r>    3.4162    0.0000 </r>
       <r>    3.5264    0.0000 </r>
       <r>    3.7544    0.0000 </r>
       <r>    3.9129    0.0000 </r>
       <r>    3.9880    0.0000 </r>
       <r>    4.5637    0.0000 </r>
       <r>    4.6719    0.0000 </r>
       <r>    4.8730    0.0000 </r>
       <r>    5.1404    0.0000 </r>
       <r>    5.1901    0.0000 </r>
       <r>    5.3289    0.0000 </r>
       <r>    5.5321    0.0000 </r>
       <r>    5.7617    0.0000 </r>
       <r>    5.8687    0.0000 </r>
       <r>    6.0489    0.0000 </r>
       <r>    6.1269    0.0000 </r>
       <r>    6.2549    0.0000 </r>
      </set>
      <set comment="kpoint 11">
       <r>   -6.7247    1.0000 </r>
       <r>   -6.1623    1.0000 </r>
       <r>   -5.7811    1.0000 </r>
       <r>   -5.4447    1.0000 </r>
       <r>   -5.1654    1.0000 </r>
       <r>   -4.8954    1.0000 </r>
       <r>   -4.8509    1.0000 </r>
       <r>   -4.5391    1.0000 </r>
       <r>   -3.4803    1.0000 </r>
       <r>   -3.4117    1.0000 </r>
       <r>   -3.3255    1.0000 </r>
       <r>   -3.0664    1.0000 </r>
       <r>   -3.0320    1.0000 </r>
       <r>   -2.8717    1.0000 </r>
       <r>   -2.8273    1.0000 </r>
       <r>   -2.8086    1.0000 </r>
       <r>   -2.7113    1.0000 </r>
       <r>   -2.6791    1.0000 </r>
       <r>   -2.6339    1.0000 </r>
       <r>   -2.5744    1.0000 </r>
       <r>   -2.4798    1.0000 </r>
       <r>   -2.4003    1.0000 </r>
       <r>   -2.3561    1.0000 </r>
       <r>   -2.3259    1.0000 </r>
       <r>   -2.2842    1.0000 </r>
       <r>   -2.2364    1.0000 </r>
       <r>   -2.1674    1.0000 </r>
       <r>   -2.1323    1.0000 </r>
       <r>   -2.0983    1.0000 </r>
       <r>   -2.0547    1.0000 </r>
       <r>   -2.0269    1.0000 </r>
       <r>   -1.9973    1.0000 </r>
       <r>   -1.9324    1.0000 </r>
       <r>   -1.9094    1.0000 </r>
       <r>   -1.8868    1.0000 </r>
       <r>   -1.7820    1.0000 </r>
       <r>   -1.7582    1.0000 </r>
       <r>   -1.7040    1.0000 </r>
       <r>   -1.6552    1.0000 </r>
       <r>   -1.6362    1.0000 </r>
       <r>   -1.5985    1.0000 </r>
       <r>   -1.5790    1.0000 </r>
       <r>   -1.5434    1.0000 </r>
       <r>   -1.5059    1.0000 </r>
       <r>   -1.4626    1.0000 </r>
       <r>   -1.4041    1.0000 </r>
       <r>   -1.3688    1.0000 </r>
       <r>   -1.3195    1.0000 </r>
       <r>   -1.2669    1.0000 </r>
       <r>   -1.2310    1.0000 </r>
       <r>   -1.2190    1.0000 </r>
       <r>   -1.1799    1.0000 </r>
       <r>   -1.1194    1.0000 </r>
       <r>   -1.0712    1.0000 </r>
       <r>   -1.0192    1.0000 </r>
       <r>   -0.9902    1.0000 </r>
       <r>   -0.9663    1.0000 </r>
       <r>   -0.9321    1.0000 </r>
       <r>   -0.8677    1.0000 </r>
       <r>   -0.8405    1.0000 </r>
       <r>   -0.8288    1.0000 </r>
       <r>   -0.7953    1.0000 </r>
       <r>   -0.7857    1.0000 </r>
       <r>   -0.7500    1.0000 </r>
       <r>   -0.7145    1.0000 </r>
       <r>   -0.6524    1.0000 </r>
       <r>   -0.6210    1.0000 </r>
       <r>   -0.6100    1.0000 </r>
       <r>   -0.5895    1.0000 </r>
       <r>   -0.5665    1.0000 </r>
       <r>   -0.5068    1.0000 </r>
       <r>   -0.4849    1.0000 </r>
       <r>   -0.4439    1.0000 </r>
       <r>   -0.4310    1.0000 </r>
       <r>   -0.3784    1.0000 </r>
       <r>   -0.3129    1.0000 </r>
       <r>   -0.2641    1.0000 </r>
       <r>   -0.2390    1.0000 </r>
       <r>   -0.2154    1.0000 </r>
       <r>   -0.1978    1.0000 </r>
       <r>   -0.1835    1.0000 </r>
       <r>   -0.0990    1.0000 </r>
       <r>   -0.0835    1.0000 </r>
       <r>   -0.0452    1.0000 </r>
       <r>    0.0155    1.0000 </r>
       <r>    0.0666    1.0000 </r>
       <r>    0.1226    1.0000 </r>
       <r>    0.1835    1.0000 </r>
       <r>    0.2645    1.0000 </r>
       <r>    0.4328    1.0000 </r>
       <r>    0.4901    1.0000 </r>
       <r>    0.6341    1.0000 </r>
       <r>    0.9374    0.9975 </r>
       <r>    1.2205    0.0000 </r>
       <r>    1.3350    0.0000 </r>
       <r>    1.4112    0.0000 </r>
       <r>    1.7153    0.0000 </r>
       <r>    2.1150    0.0000 </r>
       <r>    2.6074    0.0000 </r>
       <r>    2.7178    0.0000 </r>
       <r>    2.8332    0.0000 </r>
       <r>    3.0625    0.0000 </r>
       <r>    3.2038    0.0000 </r>
       <r>    3.3574    0.0000 </r>
       <r>    3.9170    0.0000 </r>
       <r>    4.0612    0.0000 </r>
       <r>    4.1253    0.0000 </r>
       <r>    4.3423    0.0000 </r>
       <r>    4.5105    0.0000 </r>
       <r>    4.7312    0.0000 </r>
       <r>    4.9741    0.0000 </r>
       <r>    5.0399    0.0000 </r>
       <r>    5.2381    0.0000 </r>
       <r>    5.3820    0.0000 </r>
       <r>    5.4090    0.0000 </r>
       <r>    5.7711    0.0000 </r>
       <r>    5.9331    0.0000 </r>
       <r>    5.9891    0.0000 </r>
       <r>    6.1442    0.0000 </r>
       <r>    6.2449    0.0000 </r>
      </set>
     </set>
    </set>
   </array>
  </eigenvalues>
  <separator name="orbital magnetization" >
   <v name="MAGDIPOLOUT">      0.00000000      0.00000000      0.00000000</v>
  </separator>
 </calculation>
 <structure name="finalpos" >
  <crystal>
   <varray name="basis" >
    <v>       8.39290047       0.00000000       0.00000000 </v>
    <v>       0.00200147       7.12359972       0.00000000 </v>
    <v>       0.00000000       0.00000000      16.32399940 </v>
   </varray>
   <i name="volume">    975.97378269 </i>
   <varray name="rec_basis" >
    <v>       0.11914832      -0.00003348       0.00000000 </v>
    <v>       0.00000000       0.14037847       0.00000000 </v>
    <v>       0.00000000       0.00000000       0.06125950 </v>
   </varray>
  </crystal>
  <varray name="positions" >
   <v>       0.39873999       0.50483000       0.00000000 </v>
   <v>       0.89907002       0.23477000       0.07430000 </v>
   <v>       0.10028000       0.82758999       0.10429000 </v>
   <v>       0.60031003       0.55791998       0.17871000 </v>
   <v>       0.40058045       0.14635558       0.20587153 </v>
   <v>       0.90283883       0.86535654       0.28684168 </v>
   <v>       0.10756348       0.47247418       0.31851649 </v>
   <v>       0.59448183       0.19626754       0.38236940 </v>
   <v>       0.07184000       0.51801002       0.00426000 </v>
   <v>       0.72974998       0.57587999       0.02296000 </v>
   <v>       0.23006000       0.16347000       0.05126000 </v>
   <v>       0.57196999       0.22160000       0.07004000 </v>
   <v>       0.42738000       0.84114999       0.10867000 </v>
   <v>       0.76928997       0.89903003       0.12737000 </v>
   <v>       0.26940000       0.48635000       0.15558000 </v>
   <v>       0.92730999       0.54435003       0.17433000 </v>
   <v>       0.07278433       0.15557325       0.21148298 </v>
   <v>       0.73189200       0.21214570       0.22750393 </v>
   <v>       0.23178674       0.80391546       0.26205664 </v>
   <v>       0.56878134       0.86553093       0.28626788 </v>
   <v>       0.43031418       0.49205451       0.31382280 </v>
   <v>       0.76711779       0.53414583       0.32805957 </v>
   <v>       0.27135355       0.13825488       0.35451702 </v>
   <v>       0.91981592       0.18916036       0.36756747 </v>
  </varray>
  <varray name="selective"  type="logical" >
   <v type="logical" >  F  F  F </v>
   <v type="logical" >  F  F  F </v>
   <v type="logical" >  F  F  F </v>
   <v type="logical" >  F  F  F </v>
   <v type="logical" >  T  T  T </v>
   <v type="logical" >  T  T  T </v>
   <v type="logical" >  T  T  T </v>
   <v type="logical" >  T  T  T </v>
   <v type="logical" >  F  F  F </v>
   <v type="logical" >  F  F  F </v>
   <v type="logical" >  F  F  F </v>
   <v type="logical" >  F  F  F </v>
   <v type="logical" >  F  F  F </v>
   <v type="logical" >  F  F  F </v>
   <v type="logical" >  F  F  F </v>
   <v type="logical" >  F  F  F </v>
   <v type="logical" >  T  T  T </v>
   <v type="logical" >  T  T  T </v>
   <v type="logical" >  T  T  T </v>
   <v type="logical" >  T  T  T </v>
   <v type="logical" >  T  T  T </v>
   <v type="logical" >  T  T  T </v>
   <v type="logical" >  T  T  T </v>
   <v type="logical" >  T  T  T </v>
  </varray>
  <nose>
   <v>      -3.00000000       0.00000000       0.00010000       0.00010000 </v>
  </nose>
 </structure>
</modeling>
