       N       E                     dE             d eps       ncg     rms          rms(c)
DAV:   1     0.199365291781E+04    0.19937E+04   -0.13752E+05  5712   0.685E+02
DAV:   2    -0.146041468322E+03   -0.21397E+04   -0.19629E+04  6456   0.179E+02
DAV:   3    -0.224889046086E+03   -0.78848E+02   -0.77083E+02  6732   0.343E+01
DAV:   4    -0.226220534251E+03   -0.13315E+01   -0.13307E+01  7152   0.388E+00
DAV:   5    -0.226248395049E+03   -0.27861E-01   -0.27859E-01  7296   0.545E-01
DAV:   6    -0.226249488947E+03   -0.10939E-02   -0.10939E-02  7368   0.108E-01
DAV:   7    -0.226249540364E+03   -0.51417E-04   -0.51417E-04  7032   0.202E-02    0.277E+01
RMM:   8    -0.225269191107E+03    0.98035E+00   -0.81134E-02  5712   0.364E-01    0.248E+01
RMM:   9    -0.220109870543E+03    0.51593E+01   -0.53511E+00  5712   0.292E+00    0.459E+00
RMM:  10    -0.219560736407E+03    0.54913E+00   -0.22740E-01  5714   0.484E-01    0.364E+00
RMM:  11    -0.219170815294E+03    0.38992E+00   -0.15280E-01  5712   0.403E-01    0.280E+00
RMM:  12    -0.218875334721E+03    0.29548E+00   -0.89309E-02  5722   0.258E-01    0.238E+00
RMM:  13    -0.218709536872E+03    0.16580E+00   -0.70297E-02  5738   0.239E-01    0.217E+00
RMM:  14    -0.218732588205E+03   -0.23051E-01   -0.12224E-01  5726   0.406E-01    0.256E+00
RMM:  15    -0.218528640208E+03    0.20395E+00   -0.38382E-02  5739   0.234E-01    0.158E+00
RMM:  16    -0.218489028456E+03    0.39612E-01   -0.65532E-03  5746   0.883E-02    0.118E+00
RMM:  17    -0.218449219043E+03    0.39809E-01   -0.33384E-02  5712   0.222E-01    0.604E-01
RMM:  18    -0.218473805099E+03   -0.24586E-01   -0.44659E-03  5712   0.613E-02    0.816E-01
RMM:  19    -0.218451690694E+03    0.22114E-01   -0.69719E-03  5712   0.943E-02    0.563E-01
RMM:  20    -0.218447693280E+03    0.39974E-02   -0.47730E-04  5712   0.251E-02    0.510E-01
RMM:  21    -0.218647495534E+03   -0.19980E+00   -0.38068E-02  5712   0.162E-01    0.169E+00
RMM:  22    -0.218585605852E+03    0.61890E-01   -0.10999E-03  5712   0.413E-02    0.143E+00
RMM:  23    -0.218505883747E+03    0.79722E-01   -0.29284E-03  5712   0.485E-02    0.101E+00
RMM:  24    -0.218457791662E+03    0.48092E-01   -0.25199E-03  5714   0.437E-02    0.547E-01
RMM:  25    -0.218443352806E+03    0.14439E-01   -0.10690E-03  5717   0.294E-02    0.292E-01
RMM:  26    -0.218439933507E+03    0.34193E-02   -0.17405E-03  5712   0.371E-02    0.160E-01
RMM:  27    -0.218439485760E+03    0.44775E-03   -0.10106E-04  5712   0.118E-02    0.122E-01
RMM:  28    -0.218439019405E+03    0.46635E-03   -0.17109E-04  5712   0.135E-02    0.765E-02
RMM:  29    -0.218439489762E+03   -0.47036E-03   -0.13016E-04  5712   0.117E-02    0.934E-02
RMM:  30    -0.218439850851E+03   -0.36109E-03   -0.37029E-04  5712   0.190E-02    0.208E-01
RMM:  31    -0.218442659879E+03   -0.28090E-02   -0.14396E-04  5697   0.119E-02    0.285E-01
RMM:  32    -0.218440232557E+03    0.24273E-02   -0.69421E-05  5636   0.866E-03    0.198E-01
RMM:  33    -0.218441452286E+03   -0.12197E-02   -0.96222E-06  4428   0.346E-03    0.228E-01
RMM:  34    -0.218448429814E+03   -0.69775E-02   -0.30272E-03  5712   0.439E-02    0.399E-01
RMM:  35    -0.218457775520E+03   -0.93457E-02   -0.36670E-04  5695   0.173E-02    0.532E-01
RMM:  36    -0.218461566996E+03   -0.37915E-02   -0.52283E-05  5535   0.720E-03    0.575E-01
RMM:  37    -0.218440625144E+03    0.20942E-01   -0.13159E-03  5707   0.294E-02    0.176E-01
RMM:  38    -0.218438725167E+03    0.19000E-02   -0.28231E-04  5672   0.145E-02    0.404E-02
RMM:  39    -0.218438935702E+03   -0.21053E-03   -0.48490E-05  5543   0.645E-03    0.342E-02
RMM:  40    -0.218439646502E+03   -0.71080E-03   -0.32795E-05  5160   0.643E-03    0.303E-02
RMM:  41    -0.218442634097E+03   -0.29876E-02   -0.26107E-04  5664   0.133E-02    0.200E-01
RMM:  42    -0.218443370985E+03   -0.73689E-03   -0.14171E-05  4425   0.399E-03    0.223E-01
RMM:  43    -0.218441029393E+03    0.23416E-02   -0.10607E-04  5595   0.849E-03    0.109E-01
RMM:  44    -0.218440632653E+03    0.39674E-03   -0.43009E-05  5454   0.641E-03    0.522E-02
RMM:  45    -0.218440638637E+03   -0.59831E-05   -0.54365E-06  4401   0.291E-03
   1 F= -.21844064E+03 E0= -.21843393E+03  d E =-.218441E+03
       N       E                     dE             d eps       ncg     rms          rms(c)
DAV:   1    -0.218470368440E+03   -0.29736E-01   -0.15751E+00  6120   0.123E+00    0.193E-01
RMM:   2    -0.218472458763E+03   -0.20903E-02   -0.22033E-02  5712   0.193E-01    0.100E-01
RMM:   3    -0.218472570947E+03   -0.11218E-03   -0.15797E-03  6957   0.413E-02    0.847E-02
RMM:   4    -0.218472549432E+03    0.21515E-04   -0.17087E-05  4536   0.333E-03    0.738E-02
RMM:   5    -0.218472485703E+03    0.63729E-04   -0.42514E-05  5504   0.751E-03    0.334E-02
RMM:   6    -0.218472475613E+03    0.10090E-04   -0.86490E-06  4209   0.355E-03    0.228E-02
RMM:   7    -0.218472472003E+03    0.36101E-05   -0.85964E-06  4229   0.365E-03
   2 F= -.21847247E+03 E0= -.21846569E+03  d E =-.318334E-01
       N       E                     dE             d eps       ncg     rms          rms(c)
DAV:   1    -0.218501986700E+03   -0.29511E-01   -0.73813E+01  5760   0.844E+00    0.133E+00
RMM:   2    -0.218599857449E+03   -0.97871E-01   -0.10208E+00  5712   0.132E+00    0.685E-01
RMM:   3    -0.218605851796E+03   -0.59943E-02   -0.76758E-02  6965   0.288E-01    0.580E-01
RMM:   4    -0.218604874111E+03    0.97768E-03   -0.71732E-04  5810   0.206E-02    0.513E-01
RMM:   5    -0.218601347939E+03    0.35262E-02   -0.19170E-03  5712   0.481E-02    0.215E-01
RMM:   6    -0.218600836766E+03    0.51117E-03   -0.30582E-04  5712   0.191E-02    0.146E-01
RMM:   7    -0.218600371571E+03    0.46520E-03   -0.51154E-04  5712   0.272E-02    0.802E-02
RMM:   8    -0.218600343866E+03    0.27704E-04   -0.33154E-05  5138   0.626E-03    0.752E-02
RMM:   9    -0.218600188131E+03    0.15574E-03   -0.20976E-04  5712   0.159E-02    0.278E-02
RMM:  10    -0.218600178697E+03    0.94336E-05   -0.90505E-06  4165   0.342E-03
   3 F= -.21860018E+03 E0= -.21859347E+03  d E =-.127707E+00
       N       E                     dE             d eps       ncg     rms          rms(c)
DAV:   1    -0.218602493824E+03   -0.23057E-02   -0.15354E+00  5880   0.125E+00    0.260E-01
RMM:   2    -0.218604728970E+03   -0.22351E-02   -0.23282E-02  5712   0.198E-01    0.138E-01
RMM:   3    -0.218604835624E+03   -0.10665E-03   -0.15786E-03  6918   0.413E-02    0.111E-01
RMM:   4    -0.218604785423E+03    0.50202E-04   -0.46227E-05  4599   0.456E-03    0.862E-02
RMM:   5    -0.218604692254E+03    0.93169E-04   -0.44229E-05  5696   0.706E-03    0.308E-02
RMM:   6    -0.218604683014E+03    0.92401E-05   -0.42536E-06  3944   0.264E-03
   4 F= -.21860468E+03 E0= -.21859787E+03  d E =-.450432E-02
       N       E                     dE             d eps       ncg     rms          rms(c)
DAV:   1    -0.218564817494E+03    0.39875E-01   -0.83686E+01  5712   0.907E+00    0.985E-01
RMM:   2    -0.218674878016E+03   -0.11006E+00   -0.11384E+00  5712   0.141E+00    0.523E-01
RMM:   3    -0.218682419856E+03   -0.75418E-02   -0.86889E-02  6990   0.309E-01    0.504E-01
RMM:   4    -0.218681333916E+03    0.10859E-02   -0.38653E-04  5791   0.196E-02    0.447E-01
RMM:   5    -0.218677676362E+03    0.36576E-02   -0.41456E-03  5712   0.682E-02    0.188E-01
RMM:   6    -0.218677151013E+03    0.52535E-03   -0.10148E-03  5712   0.330E-02    0.130E-01
RMM:   7    -0.218676969661E+03    0.18135E-03   -0.44364E-04  5712   0.247E-02    0.924E-02
RMM:   8    -0.218676887471E+03    0.82190E-04   -0.11581E-04  5710   0.124E-02    0.449E-02
RMM:   9    -0.218676854643E+03    0.32828E-04   -0.34041E-05  5501   0.664E-03    0.336E-02
RMM:  10    -0.218676833046E+03    0.21597E-04   -0.36516E-05  5551   0.609E-03    0.254E-02
RMM:  11    -0.218676835930E+03   -0.28838E-05   -0.79114E-06  4210   0.326E-03
   5 F= -.21867684E+03 E0= -.21867066E+03  d E =-.721529E-01
       N       E                     dE             d eps       ncg     rms          rms(c)
DAV:   1    -0.218680102043E+03   -0.32690E-02   -0.73060E-01  5976   0.856E-01    0.114E-01
RMM:   2    -0.218681084798E+03   -0.98275E-03   -0.10071E-02  5712   0.133E-01    0.593E-02
RMM:   3    -0.218681146736E+03   -0.61937E-04   -0.69389E-04  6891   0.277E-02    0.531E-02
RMM:   4    -0.218681142596E+03    0.41400E-05   -0.89694E-06  4480   0.218E-03    0.493E-02
RMM:   5    -0.218681116069E+03    0.26526E-04   -0.46563E-05  5647   0.722E-03    0.163E-02
RMM:   6    -0.218681116755E+03   -0.68557E-06   -0.40331E-06  4039   0.227E-03
   6 F= -.21868112E+03 E0= -.21867500E+03  d E =-.428083E-02
       N       E                     dE             d eps       ncg     rms          rms(c)
DAV:   1    -0.218683486596E+03   -0.23705E-02   -0.48452E-01  5856   0.688E-01    0.676E-02
RMM:   2    -0.218684103962E+03   -0.61737E-03   -0.63218E-03  5712   0.106E-01    0.379E-02
RMM:   3    -0.218684146428E+03   -0.42466E-04   -0.46425E-04  6979   0.226E-02    0.363E-02
RMM:   4    -0.218684138922E+03    0.75069E-05   -0.25688E-06  4255   0.184E-03    0.304E-02
RMM:   5    -0.218684130523E+03    0.83988E-05   -0.31975E-05  5206   0.596E-03
   7 F= -.21868413E+03 E0= -.21867807E+03  d E =-.301377E-02
       N       E                     dE             d eps       ncg     rms          rms(c)
DAV:   1    -0.218686525316E+03   -0.23864E-02   -0.36946E+00  5760   0.190E+00    0.176E-01
RMM:   2    -0.218691211767E+03   -0.46865E-02   -0.47867E-02  5712   0.290E-01    0.951E-02
RMM:   3    -0.218691536518E+03   -0.32475E-03   -0.35213E-03  6989   0.621E-02    0.932E-02
RMM:   4    -0.218691488043E+03    0.48475E-04   -0.14951E-05  4503   0.427E-03    0.805E-02
RMM:   5    -0.218691360345E+03    0.12770E-03   -0.26154E-04  5710   0.169E-02    0.336E-02
RMM:   6    -0.218691353057E+03    0.72886E-05   -0.30628E-05  5004   0.587E-03
   8 F= -.21869135E+03 E0= -.21868545E+03  d E =-.722253E-02
       N       E                     dE             d eps       ncg     rms          rms(c)
DAV:   1    -0.218693242536E+03   -0.18822E-02   -0.90184E-01  5880   0.939E-01    0.916E-02
RMM:   2    -0.218694376294E+03   -0.11338E-02   -0.11577E-02  5712   0.143E-01    0.500E-02
RMM:   3    -0.218694453585E+03   -0.77290E-04   -0.84414E-04  6986   0.304E-02    0.450E-02
RMM:   4    -0.218694436465E+03    0.17119E-04   -0.45072E-06  4384   0.245E-03    0.370E-02
RMM:   5    -0.218694407027E+03    0.29439E-04   -0.50341E-05  5624   0.741E-03    0.187E-02
RMM:   6    -0.218694404766E+03    0.22606E-05   -0.91204E-06  4093   0.354E-03
   9 F= -.21869440E+03 E0= -.21868858E+03  d E =-.305171E-02
       N       E                     dE             d eps       ncg     rms          rms(c)
DAV:   1    -0.218696229572E+03   -0.18225E-02   -0.37217E-01  5832   0.607E-01    0.515E-02
RMM:   2    -0.218696686049E+03   -0.45648E-03   -0.46340E-03  5712   0.905E-02    0.256E-02
RMM:   3    -0.218696716642E+03   -0.30593E-04   -0.31654E-04  6830   0.186E-02    0.244E-02
RMM:   4    -0.218696713888E+03    0.27542E-05   -0.30666E-06  3798   0.163E-03    0.215E-02
RMM:   5    -0.218696706745E+03    0.71424E-05   -0.23290E-05  4870   0.533E-03
  10 F= -.21869671E+03 E0= -.21869090E+03  d E =-.230198E-02
       N       E                     dE             d eps       ncg     rms          rms(c)
DAV:   1    -0.218691038868E+03    0.56750E-02   -0.13777E+01  5712   0.369E+00    0.295E-01
RMM:   2    -0.218708060274E+03   -0.17021E-01   -0.17254E-01  5712   0.552E-01    0.150E-01
RMM:   3    -0.218709210391E+03   -0.11501E-02   -0.11935E-02  6935   0.114E-01    0.156E-01
RMM:   4    -0.218709100762E+03    0.10963E-03   -0.81601E-05  5505   0.802E-03    0.140E-01
RMM:   5    -0.218708652197E+03    0.44856E-03   -0.12350E-03  5712   0.368E-02    0.628E-02
RMM:   6    -0.218708646547E+03    0.56499E-05   -0.51482E-05  5411   0.749E-03
  11 F= -.21870865E+03 E0= -.21870298E+03  d E =-.119398E-01
       N       E                     dE             d eps       ncg     rms          rms(c)
DAV:   1    -0.218707989350E+03    0.66285E-03   -0.53154E+00  5772   0.229E+00    0.204E-01
RMM:   2    -0.218714525999E+03   -0.65366E-02   -0.66408E-02  5712   0.343E-01    0.106E-01
RMM:   3    -0.218714954679E+03   -0.42868E-03   -0.45498E-03  6895   0.707E-02    0.960E-02
RMM:   4    -0.218714882109E+03    0.72570E-04   -0.42363E-05  4635   0.606E-03    0.816E-02
RMM:   5    -0.218714678392E+03    0.20372E-03   -0.38268E-04  5712   0.207E-02    0.350E-02
RMM:   6    -0.218714670233E+03    0.81593E-05   -0.12943E-05  3906   0.422E-03
  12 F= -.21871467E+03 E0= -.21870909E+03  d E =-.602369E-02
       N       E                     dE             d eps       ncg     rms          rms(c)
DAV:   1    -0.218715740092E+03   -0.10617E-02   -0.28940E-01  5904   0.538E-01    0.556E-02
RMM:   2    -0.218716098827E+03   -0.35874E-03   -0.36971E-03  5712   0.811E-02    0.318E-02
RMM:   3    -0.218716119249E+03   -0.20422E-04   -0.25188E-04  6692   0.167E-02    0.277E-02
RMM:   4    -0.218716109991E+03    0.92575E-05   -0.48623E-06  3811   0.227E-03    0.226E-02
RMM:   5    -0.218716092537E+03    0.17454E-04   -0.12100E-05  4321   0.385E-03    0.119E-02
RMM:   6    -0.218716089280E+03    0.32574E-05   -0.44269E-06  3981   0.249E-03
  13 F= -.21871609E+03 E0= -.21871051E+03  d E =-.141905E-02
       N       E                     dE             d eps       ncg     rms          rms(c)
DAV:   1    -0.218716140636E+03   -0.48099E-04   -0.35219E+00  5736   0.187E+00    0.145E-01
RMM:   2    -0.218720476876E+03   -0.43362E-02   -0.43928E-02  5712   0.279E-01    0.749E-02
RMM:   3    -0.218720757842E+03   -0.28097E-03   -0.29244E-03  6743   0.570E-02    0.778E-02
RMM:   4    -0.218720730911E+03    0.26931E-04   -0.50359E-05  4715   0.598E-03    0.700E-02
RMM:   5    -0.218720609126E+03    0.12178E-03   -0.27797E-04  5711   0.177E-02    0.309E-02
RMM:   6    -0.218720606998E+03    0.21288E-05   -0.10605E-05  3654   0.378E-03
  14 F= -.21872061E+03 E0= -.21871504E+03  d E =-.451772E-02
       N       E                     dE             d eps       ncg     rms          rms(c)
DAV:   1    -0.218713622364E+03    0.69868E-02   -0.25819E+00  5736   0.160E+00    0.114E-01
RMM:   2    -0.218716799689E+03   -0.31773E-02   -0.32078E-02  5712   0.239E-01    0.631E-02
RMM:   3    -0.218717011358E+03   -0.21167E-03   -0.21674E-03  6887   0.488E-02    0.727E-02
RMM:   4    -0.218716996274E+03    0.15084E-04   -0.19765E-05  4538   0.369E-03    0.674E-02
RMM:   5    -0.218716908383E+03    0.87890E-04   -0.38338E-04  5711   0.203E-02    0.351E-02
RMM:   6    -0.218716909253E+03   -0.86934E-06   -0.86193E-06  3536   0.356E-03
  15 F= -.21871691E+03 E0= -.21871131E+03  d E =0.369774E-02
       N       E                     dE             d eps       ncg     rms          rms(c)
DAV:   1    -0.218700063631E+03    0.16845E-01   -0.76215E+00  5712   0.274E+00    0.228E-01
RMM:   2    -0.218709478559E+03   -0.94149E-02   -0.95444E-02  5712   0.411E-01    0.119E-01
RMM:   3    -0.218710108471E+03   -0.62991E-03   -0.65849E-03  6925   0.850E-02    0.118E-01
RMM:   4    -0.218710027290E+03    0.81181E-04   -0.49761E-05  4875   0.665E-03    0.103E-01
RMM:   5    -0.218709776403E+03    0.25089E-03   -0.63268E-04  5712   0.264E-02    0.450E-02
RMM:   6    -0.218709768873E+03    0.75303E-05   -0.23781E-05  4583   0.541E-03
  16 F= -.21870977E+03 E0= -.21870404E+03  d E =0.714038E-02
       N       E                     dE             d eps       ncg     rms          rms(c)
DAV:   1    -0.218709799815E+03   -0.23412E-04   -0.24675E+00  5712   0.156E+00    0.140E-01
RMM:   2    -0.218712935256E+03   -0.31354E-02   -0.31946E-02  5712   0.238E-01    0.793E-02
RMM:   3    -0.218713154669E+03   -0.21941E-03   -0.23329E-03  6989   0.507E-02    0.837E-02
RMM:   4    -0.218713134170E+03    0.20499E-04   -0.76454E-06  4467   0.294E-03    0.771E-02
RMM:   5    -0.218713032611E+03    0.10156E-03   -0.26554E-04  5711   0.170E-02    0.240E-02
RMM:   6    -0.218713032608E+03    0.26121E-08   -0.15691E-05  3926   0.441E-03
  17 F= -.21871303E+03 E0= -.21870741E+03  d E =-.326374E-02
       N       E                     dE             d eps       ncg     rms          rms(c)
DAV:   1    -0.218709151059E+03    0.38816E-02   -0.88345E+00  5712   0.297E+00    0.236E-01
RMM:   2    -0.218720048443E+03   -0.10897E-01   -0.11035E-01  5712   0.443E-01    0.123E-01
RMM:   3    -0.218720755785E+03   -0.70734E-03   -0.73517E-03  6755   0.903E-02    0.125E-01
RMM:   4    -0.218720681117E+03    0.74668E-04   -0.12132E-04  5046   0.939E-03    0.111E-01
RMM:   5    -0.218720389766E+03    0.29135E-03   -0.62919E-04  5712   0.265E-02    0.455E-02
RMM:   6    -0.218720381956E+03    0.78105E-05   -0.39628E-05  5027   0.647E-03
  18 F= -.21872038E+03 E0= -.21871477E+03  d E =-.734935E-02
       N       E                     dE             d eps       ncg     rms          rms(c)
DAV:   1    -0.218714930523E+03    0.54592E-02   -0.18649E+00  5736   0.136E+00    0.961E-02
RMM:   2    -0.218717231526E+03   -0.23010E-02   -0.23235E-02  5712   0.203E-01    0.569E-02
RMM:   3    -0.218717385579E+03   -0.15405E-03   -0.15845E-03  6906   0.418E-02    0.673E-02
RMM:   4    -0.218717377198E+03    0.83806E-05   -0.12901E-05  4512   0.288E-03    0.641E-02
RMM:   5    -0.218717302128E+03    0.75070E-04   -0.33136E-04  5711   0.189E-02    0.313E-02
RMM:   6    -0.218717303133E+03   -0.10050E-05   -0.81218E-06  3309   0.343E-03
  19 F= -.21871730E+03 E0= -.21871164E+03  d E =0.307882E-02
       N       E                     dE             d eps       ncg     rms          rms(c)
DAV:   1    -0.218703184694E+03    0.14117E-01   -0.60189E+00  5712   0.244E+00    0.211E-01
RMM:   2    -0.218710633390E+03   -0.74487E-02   -0.75569E-02  5712   0.366E-01    0.110E-01
RMM:   3    -0.218711136008E+03   -0.50262E-03   -0.52540E-03  6942   0.759E-02    0.105E-01
RMM:   4    -0.218711071319E+03    0.64689E-04   -0.34619E-05  4628   0.575E-03    0.908E-02
RMM:   5    -0.218710884746E+03    0.18657E-03   -0.45334E-04  5712   0.224E-02    0.368E-02
RMM:   6    -0.218710878323E+03    0.64232E-05   -0.17558E-05  4087   0.483E-03
  20 F= -.21871088E+03 E0= -.21870509E+03  d E =0.642481E-02
       N       E                     dE             d eps       ncg     rms          rms(c)
DAV:   1    -0.218710559415E+03    0.32533E-03   -0.68581E-01  5736   0.821E-01    0.859E-02
RMM:   2    -0.218711447074E+03   -0.88766E-03   -0.91432E-03  5712   0.127E-01    0.513E-02
RMM:   3    -0.218711506859E+03   -0.59785E-04   -0.68243E-04  6981   0.275E-02    0.516E-02
RMM:   4    -0.218711497561E+03    0.92979E-05   -0.33695E-06  4378   0.183E-03    0.465E-02
RMM:   5    -0.218711456604E+03    0.40957E-04   -0.69554E-05  5690   0.875E-03    0.154E-02
RMM:   6    -0.218711454326E+03    0.22775E-05   -0.70859E-06  3548   0.299E-03
  21 F= -.21871145E+03 E0= -.21870573E+03  d E =-.576003E-03
       N       E                     dE             d eps       ncg     rms          rms(c)
DAV:   1    -0.218704846536E+03    0.66101E-02   -0.12223E+01  5712   0.348E+00    0.265E-01
RMM:   2    -0.218719886658E+03   -0.15040E-01   -0.15213E-01  5712   0.519E-01    0.135E-01
RMM:   3    -0.218720880322E+03   -0.99366E-03   -0.10226E-02  6815   0.106E-01    0.143E-01
RMM:   4    -0.218720793920E+03    0.86403E-04   -0.13709E-04  5378   0.971E-03    0.128E-01
RMM:   5    -0.218720413271E+03    0.38065E-03   -0.10761E-03  5712   0.344E-02    0.583E-02
RMM:   6    -0.218720411587E+03    0.16834E-05   -0.46876E-05  5140   0.710E-03
  22 F= -.21872041E+03 E0= -.21871476E+03  d E =-.895726E-02
       N       E                     dE             d eps       ncg     rms          rms(c)
DAV:   1    -0.218718154847E+03    0.22584E-02   -0.54324E-01  5736   0.734E-01    0.520E-02
RMM:   2    -0.218718826117E+03   -0.67127E-03   -0.67834E-03  5712   0.110E-01    0.419E-02
RMM:   3    -0.218718870731E+03   -0.44613E-04   -0.47000E-04  6936   0.228E-02    0.506E-02
RMM:   4    -0.218718873674E+03   -0.29432E-05   -0.33864E-06  4360   0.160E-03    0.530E-02
RMM:   5    -0.218718830475E+03    0.43199E-04   -0.18461E-04  5710   0.140E-02    0.222E-02
RMM:   6    -0.218718830716E+03   -0.24079E-06   -0.47926E-06  3146   0.264E-03
  23 F= -.21871883E+03 E0= -.21871315E+03  d E =0.158087E-02
       N       E                     dE             d eps       ncg     rms          rms(c)
DAV:   1    -0.218708166956E+03    0.10664E-01   -0.43690E+00  5712   0.208E+00    0.173E-01
RMM:   2    -0.218713540671E+03   -0.53737E-02   -0.54432E-02  5712   0.311E-01    0.875E-02
RMM:   3    -0.218713901307E+03   -0.36064E-03   -0.37139E-03  6893   0.639E-02    0.854E-02
RMM:   4    -0.218713865899E+03    0.35408E-04   -0.32931E-05  4566   0.511E-03    0.749E-02
RMM:   5    -0.218713746595E+03    0.11930E-03   -0.33600E-04  5711   0.194E-02    0.298E-02
RMM:   6    -0.218713745539E+03    0.10564E-05   -0.91590E-06  3468   0.363E-03
  24 F= -.21871375E+03 E0= -.21870798E+03  d E =0.508518E-02
       N       E                     dE             d eps       ncg     rms          rms(c)
DAV:   1    -0.218715082550E+03   -0.13360E-02   -0.91574E-01  5712   0.953E-01    0.676E-02
RMM:   2    -0.218716211125E+03   -0.11286E-02   -0.11390E-02  5712   0.142E-01    0.366E-02
RMM:   3    -0.218716287304E+03   -0.76179E-04   -0.77392E-04  6892   0.292E-02    0.427E-02
RMM:   4    -0.218716283376E+03    0.39287E-05   -0.65132E-06  4206   0.209E-03    0.400E-02
RMM:   5    -0.218716256043E+03    0.27333E-04   -0.13050E-04  5706   0.119E-02    0.198E-02
RMM:   6    -0.218716256500E+03   -0.45670E-06   -0.30493E-06  3152   0.211E-03
  25 F= -.21871626E+03 E0= -.21871051E+03  d E =-.251096E-02
       N       E                     dE             d eps       ncg     rms          rms(c)
DAV:   1    -0.218716163944E+03    0.92098E-04   -0.15746E+00  5712   0.125E+00    0.119E-01
RMM:   2    -0.218718142951E+03   -0.19790E-02   -0.20190E-02  5712   0.189E-01    0.624E-02
RMM:   3    -0.218718279765E+03   -0.13681E-03   -0.14596E-03  6976   0.400E-02    0.601E-02
RMM:   4    -0.218718263697E+03    0.16068E-04   -0.63189E-06  4454   0.262E-03    0.531E-02
RMM:   5    -0.218718207227E+03    0.56469E-04   -0.11220E-04  5706   0.111E-02    0.189E-02
RMM:   6    -0.218718205087E+03    0.21406E-05   -0.89981E-06  3530   0.341E-03
  26 F= -.21871821E+03 E0= -.21871254E+03  d E =-.194859E-02
       N       E                     dE             d eps       ncg     rms          rms(c)
DAV:   1    -0.218717236333E+03    0.97089E-03   -0.26882E-01  5736   0.517E-01    0.520E-02
RMM:   2    -0.218717578045E+03   -0.34171E-03   -0.35047E-03  5712   0.790E-02    0.282E-02
RMM:   3    -0.218717600645E+03   -0.22599E-04   -0.25485E-04  6942   0.168E-02    0.263E-02
RMM:   4    -0.218717595674E+03    0.49707E-05   -0.15701E-06  3544   0.133E-03    0.225E-02
RMM:   5    -0.218717582729E+03    0.12945E-04   -0.14738E-05  4153   0.425E-03    0.104E-02
RMM:   6    -0.218717580914E+03    0.18148E-05   -0.60488E-06  3295   0.300E-03
  27 F= -.21871758E+03 E0= -.21871194E+03  d E =0.624172E-03
       N       E                     dE             d eps       ncg     rms          rms(c)
DAV:   1    -0.218717524629E+03    0.58101E-04   -0.70567E-02  5904   0.264E-01    0.283E-02
RMM:   2    -0.218717614706E+03   -0.90078E-04   -0.93028E-04  5712   0.406E-02    0.152E-02
RMM:   3    -0.218717620108E+03   -0.54018E-05   -0.63502E-05  5374   0.879E-03    0.131E-02
RMM:   4    -0.218717618279E+03    0.18287E-05   -0.39015E-06  3191   0.257E-03    0.966E-03
RMM:   5    -0.218717616359E+03    0.19209E-05   -0.15370E-06  3233   0.163E-03
  28 F= -.21871762E+03 E0= -.21871200E+03  d E =-.354441E-04
       N       E                     dE             d eps       ncg     rms          rms(c)
DAV:   1    -0.218717494619E+03    0.12366E-03   -0.37448E-03  5952   0.606E-02    0.735E-03
RMM:   2    -0.218717499269E+03   -0.46496E-05   -0.47870E-05  4260   0.927E-03    0.499E-03
RMM:   3    -0.218717499512E+03   -0.24321E-06   -0.28280E-06  2899   0.213E-03    0.421E-03
RMM:   4    -0.218717499540E+03   -0.27976E-07   -0.84092E-07  2881   0.119E-03    0.262E-03
RMM:   5    -0.218717499512E+03    0.27689E-07   -0.92795E-08  1717   0.623E-04
  29 F= -.21871750E+03 E0= -.21871188E+03  d E =0.116846E-03
       N       E                     dE             d eps       ncg     rms          rms(c)
DAV:   1    -0.218718129380E+03   -0.62984E-03   -0.70112E-01  5712   0.835E-01    0.753E-02
RMM:   2    -0.218719016813E+03   -0.88743E-03   -0.90524E-03  5712   0.127E-01    0.410E-02
RMM:   3    -0.218719075955E+03   -0.59142E-04   -0.64311E-04  6954   0.266E-02    0.414E-02
RMM:   4    -0.218719067586E+03    0.83684E-05   -0.35696E-06  4312   0.187E-03    0.368E-02
RMM:   5    -0.218719036577E+03    0.31009E-04   -0.52588E-05  5646   0.758E-03    0.143E-02
RMM:   6    -0.218719034278E+03    0.22991E-05   -0.56482E-06  3284   0.268E-03
  30 F= -.21871903E+03 E0= -.21871338E+03  d E =-.153477E-02
       N       E                     dE             d eps       ncg     rms          rms(c)
DAV:   1    -0.218720243651E+03   -0.12071E-02   -0.12671E+00  5712   0.112E+00    0.919E-02
RMM:   2    -0.218721813520E+03   -0.15699E-02   -0.15909E-02  5712   0.168E-01    0.486E-02
RMM:   3    -0.218721916251E+03   -0.10273E-03   -0.10825E-03  6834   0.345E-02    0.479E-02
RMM:   4    -0.218721900147E+03    0.16104E-04   -0.12859E-05  4443   0.330E-03    0.413E-02
RMM:   5    -0.218721852788E+03    0.47359E-04   -0.10158E-04  5705   0.105E-02    0.189E-02
RMM:   6    -0.218721850404E+03    0.23837E-05   -0.49475E-06  3282   0.254E-03
  31 F= -.21872185E+03 E0= -.21871621E+03  d E =-.281613E-02
       N       E                     dE             d eps       ncg     rms          rms(c)
DAV:   1    -0.218722334411E+03   -0.48162E-03   -0.36258E-01  5712   0.596E-01    0.608E-02
RMM:   2    -0.218722799900E+03   -0.46549E-03   -0.47729E-03  5712   0.919E-02    0.342E-02
RMM:   3    -0.218722831761E+03   -0.31861E-04   -0.35523E-04  6978   0.198E-02    0.327E-02
RMM:   4    -0.218722825660E+03    0.61010E-05   -0.17067E-06  3780   0.147E-03    0.278E-02
RMM:   5    -0.218722809597E+03    0.16063E-04   -0.23303E-05  4724   0.522E-03    0.113E-02
RMM:   6    -0.218722808159E+03    0.14382E-05   -0.54837E-06  3228   0.285E-03
  32 F= -.21872281E+03 E0= -.21871722E+03  d E =-.957755E-03
       N       E                     dE             d eps       ncg     rms          rms(c)
DAV:   1    -0.218723924489E+03   -0.11149E-02   -0.15771E+00  5712   0.124E+00    0.101E-01
RMM:   2    -0.218725892234E+03   -0.19677E-02   -0.19930E-02  5712   0.187E-01    0.547E-02
RMM:   3    -0.218726024680E+03   -0.13245E-03   -0.13875E-03  6925   0.390E-02    0.557E-02
RMM:   4    -0.218726005157E+03    0.19523E-04   -0.10332E-05  4460   0.314E-03    0.483E-02
RMM:   5    -0.218725945244E+03    0.59913E-04   -0.15895E-04  5706   0.130E-02    0.231E-02
RMM:   6    -0.218725943702E+03    0.15420E-05   -0.51950E-06  3311   0.266E-03
  33 F= -.21872594E+03 E0= -.21872041E+03  d E =-.313554E-02
       N       E                     dE             d eps       ncg     rms          rms(c)
DAV:   1    -0.218727011885E+03   -0.10666E-02   -0.67862E-01  5760   0.816E-01    0.731E-02
RMM:   2    -0.218727860144E+03   -0.84826E-03   -0.86148E-03  5712   0.123E-01    0.394E-02
RMM:   3    -0.218727916293E+03   -0.56148E-04   -0.60208E-04  6920   0.257E-02    0.364E-02
RMM:   4    -0.218727904517E+03    0.11775E-04   -0.48199E-06  3946   0.224E-03    0.306E-02
RMM:   5    -0.218727876209E+03    0.28308E-04   -0.52256E-05  5599   0.750E-03    0.143E-02
RMM:   6    -0.218727874353E+03    0.18566E-05   -0.28116E-06  3237   0.196E-03
  34 F= -.21872787E+03 E0= -.21872238E+03  d E =-.193065E-02
       N       E                     dE             d eps       ncg     rms          rms(c)
DAV:   1    -0.218728387686E+03   -0.51148E-03   -0.16996E+00  5712   0.129E+00    0.107E-01
RMM:   2    -0.218730514326E+03   -0.21266E-02   -0.21563E-02  5712   0.195E-01    0.567E-02
RMM:   3    -0.218730657503E+03   -0.14318E-03   -0.15082E-03  6933   0.406E-02    0.566E-02
RMM:   4    -0.218730636296E+03    0.21207E-04   -0.10508E-05  4474   0.319E-03    0.491E-02
RMM:   5    -0.218730570663E+03    0.65632E-04   -0.15004E-04  5706   0.127E-02    0.231E-02
RMM:   6    -0.218730567967E+03    0.26965E-05   -0.63640E-06  3359   0.290E-03
  35 F= -.21873057E+03 E0= -.21872512E+03  d E =-.269361E-02
       N       E                     dE             d eps       ncg     rms          rms(c)
DAV:   1    -0.218730081847E+03    0.48882E-03   -0.22032E+00  5712   0.147E+00    0.125E-01
RMM:   2    -0.218732839333E+03   -0.27575E-02   -0.27953E-02  5712   0.222E-01    0.666E-02
RMM:   3    -0.218733023498E+03   -0.18417E-03   -0.19467E-03  6918   0.462E-02    0.647E-02
RMM:   4    -0.218732992466E+03    0.31033E-04   -0.15398E-05  4516   0.385E-03    0.556E-02
RMM:   5    -0.218732903666E+03    0.88800E-04   -0.19906E-04  5708   0.145E-02    0.261E-02
RMM:   6    -0.218732899838E+03    0.38277E-05   -0.79621E-06  3432   0.325E-03
  36 F= -.21873290E+03 E0= -.21872750E+03  d E =-.233187E-02
       N       E                     dE             d eps       ncg     rms          rms(c)
DAV:   1    -0.218733301449E+03   -0.39778E-03   -0.19774E-01  5880   0.441E-01    0.435E-02
RMM:   2    -0.218733546989E+03   -0.24554E-03   -0.25050E-03  5712   0.664E-02    0.240E-02
RMM:   3    -0.218733561963E+03   -0.14974E-04   -0.17134E-04  6598   0.138E-02    0.202E-02
RMM:   4    -0.218733556227E+03    0.57358E-05   -0.28867E-06  3259   0.186E-03    0.164E-02
RMM:   5    -0.218733544615E+03    0.11612E-04   -0.10775E-05  4169   0.364E-03    0.725E-03
RMM:   6    -0.218733543812E+03    0.80309E-06   -0.22033E-06  3150   0.187E-03
  37 F= -.21873354E+03 E0= -.21872815E+03  d E =-.643974E-03
       N       E                     dE             d eps       ncg     rms          rms(c)
DAV:   1    -0.218733800710E+03   -0.25609E-03   -0.26856E-02  5880   0.165E-01    0.169E-02
RMM:   2    -0.218733834531E+03   -0.33821E-04   -0.34595E-04  5711   0.250E-02    0.938E-03
RMM:   3    -0.218733835982E+03   -0.14508E-05   -0.17745E-05  3298   0.516E-03    0.832E-03
RMM:   4    -0.218733835115E+03    0.86641E-06   -0.38349E-06  3046   0.256E-03    0.520E-03
RMM:   5    -0.218733834293E+03    0.82264E-06   -0.11923E-06  3126   0.141E-03
  38 F= -.21873383E+03 E0= -.21872843E+03  d E =-.290481E-03
