 vasp.5.4.4.18Apr17-6-g9f103f2a35 (build May 11 2017 09:47:33) complex          
  
 executed on            tekla2IFC date 2020.05.18  17:05:28
 running on   12 total cores
 distrk:  each k-point on   12 cores,    1 groups
 distr:  one band on NCORES_PER_BAND=   1 cores,   12 groups


--------------------------------------------------------------------------------------------------------


 INCAR:
 POTCAR:    PAW_PBE In 08Apr2002                  
 POTCAR:    PAW_PBE Pd 04Jan2005                  

 ----------------------------------------------------------------------------- 
|                                                                             |
|           W    W    AA    RRRRR   N    N  II  N    N   GGGG   !!!           |
|           W    W   A  A   R    R  NN   N  II  NN   N  G    G  !!!           |
|           W    W  A    A  R    R  N N  N  II  N N  N  G       !!!           |
|           W WW W  AAAAAA  RRRRR   N  N N  II  N  N N  G  GGG   !            |
|           WW  WW  A    A  R   R   N   NN  II  N   NN  G    G                |
|           W    W  A    A  R    R  N    N  II  N    N   GGGG   !!!           |
|                                                                             |
|      For optimal performance we recommend to set                            |
|        NCORE= 4 - approx SQRT( number of cores)                             |
|      NCORE specifies how many cores store one orbital (NPAR=cpu/NCORE).     |
|      This setting can  greatly improve the performance of VASP for DFT.     |
|      The default,   NCORE=1            might be grossly inefficient         |
|      on modern multi-core architectures or massively parallel machines.     |
|      Do your own testing !!!!                                               |
|      Unfortunately you need to use the default for GW and RPA calculations. |
|      (for HF NCORE is supported but not extensively tested yet)             |
|                                                                             |
 ----------------------------------------------------------------------------- 

 POTCAR:    PAW_PBE In 08Apr2002                  
  local pseudopotential read in
  partial core-charges read in
  partial kinetic energy density read in
  atomic valenz-charges read in
  non local Contribution for L=           0  read in
    real space projection operators read in
  non local Contribution for L=           0  read in
    real space projection operators read in
  non local Contribution for L=           1  read in
    real space projection operators read in
  non local Contribution for L=           1  read in
    real space projection operators read in
  non local Contribution for L=           2  read in
    real space projection operators read in
    PAW grid and wavefunctions read in
 
   number of l-projection  operators is LMAX  =           5
   number of lm-projection operators is LMMAX =          13
 
 POTCAR:    PAW_PBE Pd 04Jan2005                  
  local pseudopotential read in
  partial core-charges read in
  partial kinetic energy density read in
  atomic valenz-charges read in
  non local Contribution for L=           2  read in
    real space projection operators read in
  non local Contribution for L=           2  read in
    real space projection operators read in
  non local Contribution for L=           0  read in
    real space projection operators read in
  non local Contribution for L=           0  read in
    real space projection operators read in
  non local Contribution for L=           1  read in
    real space projection operators read in
  non local Contribution for L=           1  read in
    real space projection operators read in
    PAW grid and wavefunctions read in
 
   number of l-projection  operators is LMAX  =           6
   number of lm-projection operators is LMMAX =          18
 
 Optimization of the real space projectors (new method)

 maximal supplied QI-value         = 12.09
 optimisation between [QCUT,QGAM] = [ 10.76, 21.65] = [ 32.44,131.24] Ry 
 Optimized for a Real-space Cutoff    1.65 Angstroem

   l    n(q)    QCUT    max X(q) W(low)/X(q) W(high)/X(q)  e(spline) 
   0     11    10.764   106.980    0.17E-03    0.26E-03    0.98E-06
   0     11    10.764    81.086    0.18E-03    0.28E-03    0.11E-05
   1     10    10.764    53.097    0.42E-03    0.22E-03    0.10E-05
   1     10    10.764    32.621    0.39E-03    0.21E-03    0.95E-06
   2     10    10.764     8.820    0.14E-03    0.25E-03    0.18E-06
 Optimization of the real space projectors (new method)

 maximal supplied QI-value         = 14.36
 optimisation between [QCUT,QGAM] = [ 10.77, 21.69] = [ 32.49,131.70] Ry 
 Optimized for a Real-space Cutoff    1.46 Angstroem

   l    n(q)    QCUT    max X(q) W(low)/X(q) W(high)/X(q)  e(spline) 
   2      9    10.771    59.108    0.11E-03    0.29E-03    0.19E-06
   2      9    10.771    58.101    0.11E-03    0.29E-03    0.19E-06
   0     10    10.771   102.235    0.41E-04    0.80E-04    0.63E-07
   0     10    10.771    58.388    0.39E-04    0.76E-04    0.60E-07
   1      9    10.771    22.191    0.50E-03    0.23E-03    0.35E-06
   1      9    10.771    15.590    0.42E-03    0.19E-03    0.29E-06
  PAW_PBE In 08Apr2002                  :
 energy of atom  1       EATOM=  -53.7908
 kinetic energy error for atom=    0.0000 (will be added to EATOM!!)
  PAW_PBE Pd 04Jan2005                  :
 energy of atom  2       EATOM= -809.7530
 kinetic energy error for atom=    0.0051 (will be added to EATOM!!)
 
 
 POSCAR: InPd2                                   
  positions in cartesian coordinates
  No initial velocities read in
 exchange correlation table for  LEXCH =        8
   RHO(1)=    0.500       N(1)  =     2000
   RHO(2)=  100.500       N(2)  =     4000
 


--------------------------------------------------------------------------------------------------------


 ion  position               nearest neighbor table
   1  0.500  0.055  0.000-  21 2.74  20 2.75  19 2.75  38 2.77  34 2.85  23 2.94  35 2.99  12 3.39
                             2 3.81  10 3.81
   2  0.799  0.305  0.000-  24 2.74  19 2.75  36 2.75  23 2.77  17 2.85  22 2.94  20 2.99   3 3.39
                             1 3.81   9 3.81
   3  0.000  0.127  0.130-  28 2.74  20 2.74  21 2.75  40 2.75  25 2.77  17 2.77  23 2.85  42 2.94
                            34 2.94  24 2.99   6 3.39   2 3.39  12 3.80   4 3.81
   4  0.299  0.377  0.130-  27 2.74  19 2.74  24 2.75  21 2.75  26 2.77  18 2.77  22 2.85  25 2.94
                            17 2.94  37 2.99  13 3.39   9 3.39  11 3.80   3 3.81
   5  0.500  0.055  0.259-  21 2.74  29 2.74  28 2.75  27 2.75  38 2.77  46 2.77  42 2.85  23 2.94
                            31 2.94  43 2.99  12 3.39  16 3.39   6 3.81  14 3.81
   6  0.799  0.305  0.259-  24 2.74  32 2.74  27 2.75  44 2.75  23 2.77  31 2.77  25 2.85  22 2.94
                            30 2.94  28 2.99   3 3.39   7 3.39   5 3.81  13 3.81
   7  0.000  0.127  0.389-  28 2.74  29 2.75  48 2.75  25 2.77  31 2.85  42 2.94  32 2.99   6 3.39
                            16 3.80   8 3.81
   8  0.299  0.377  0.389-  27 2.74  32 2.75  29 2.75  26 2.77  30 2.85  25 2.94  45 2.99  13 3.39
                            15 3.80   7 3.81
   9  0.500  0.555  0.000-  37 2.74  36 2.75  35 2.75  22 2.77  18 2.85  39 2.94  19 2.99   4 3.39
                            10 3.81   2 3.81
  10  0.799  0.805  0.000-  40 2.74  35 2.75  20 2.75  39 2.77  33 2.85  38 2.94  36 2.99  11 3.39
                             9 3.81   1 3.81
  11  0.000  0.627  0.130-  44 2.74  36 2.74  37 2.75  24 2.75  41 2.77  33 2.77  39 2.85  26 2.94
                            18 2.94  40 2.99  14 3.39  10 3.39   4 3.80  12 3.81
  12  0.299  0.877  0.130-  43 2.74  35 2.74  40 2.75  37 2.75  42 2.77  34 2.77  38 2.85  41 2.94
                            33 2.94  21 2.99   5 3.39   1 3.39   3 3.80  11 3.81
  13  0.500  0.555  0.259-  37 2.74  45 2.74  44 2.75  43 2.75  22 2.77  30 2.77  26 2.85  39 2.94
                            47 2.94  27 2.99   4 3.39   8 3.39  14 3.81   6 3.81
  14  0.799  0.805  0.259-  40 2.74  48 2.74  43 2.75  28 2.75  39 2.77  47 2.77  41 2.85  38 2.94
                            46 2.94  44 2.99  11 3.39  15 3.39  13 3.81   5 3.81
  15  0.000  0.627  0.389-  44 2.74  45 2.75  32 2.75  41 2.77  47 2.85  26 2.94  48 2.99  14 3.39
                             8 3.80  16 3.81
  16  0.299  0.877  0.389-  43 2.74  48 2.75  45 2.75  42 2.77  46 2.85  41 2.94  29 2.99   5 3.39
                             7 3.80  15 3.81
  17  0.130  0.250  0.000-   3 2.77   2 2.85  18 2.88  34 2.88  19 2.92   4 2.94  24 2.95  21 2.98

  18  0.169  0.500  0.000-   4 2.77   9 2.85  17 2.88  33 2.88  36 2.92  11 2.94  37 2.96  24 2.98

  19  0.472  0.295  0.000-   4 2.74   2 2.75   1 2.75  17 2.92  22 2.95  23 2.98   9 2.99  21 3.04

  20  0.827  0.045  0.000-   3 2.74   1 2.75  10 2.75  34 2.92  23 2.95  38 2.98   2 2.99  40 3.04

  21  0.327  0.138  0.130-   5 2.74   1 2.74   3 2.75   4 2.75  23 2.92  42 2.96  34 2.96  25 2.98
                            17 2.98  12 2.99  27 3.04  19 3.04
  22  0.629  0.432  0.130-  13 2.77   9 2.77   4 2.85  23 2.88  39 2.88  24 2.92   6 2.94   2 2.94
                            27 2.95  19 2.95  44 2.98  36 2.98
  23  0.669  0.182  0.130-   6 2.77   2 2.77   3 2.85  22 2.88  38 2.88  21 2.92   5 2.94   1 2.94
                            28 2.95  20 2.95  27 2.98  19 2.98
  24  0.972  0.387  0.130-   6 2.74   2 2.74   4 2.75  11 2.75  22 2.92  25 2.95  17 2.95  26 2.98
                            18 2.98   3 2.99  44 3.04  36 3.04
  25  0.130  0.250  0.259-   3 2.77   7 2.77   6 2.85  26 2.88  42 2.88  27 2.92   4 2.94   8 2.94
                            24 2.95  32 2.95  21 2.98  29 2.98
  26  0.169  0.500  0.259-   4 2.77   8 2.77  13 2.85  25 2.88  41 2.88  44 2.92  11 2.94  15 2.94
                            37 2.96  45 2.96  24 2.98  32 2.98
  27  0.472  0.295  0.259-   4 2.74   8 2.74   6 2.75   5 2.75  25 2.92  22 2.95  30 2.95  23 2.98
                            31 2.98  13 2.99  21 3.04  29 3.04
  28  0.827  0.045  0.259-   3 2.74   7 2.74   5 2.75  14 2.75  42 2.92  23 2.95  31 2.95  38 2.98
                            46 2.98   6 2.99  40 3.04  48 3.04
  29  0.327  0.138  0.389-   5 2.74   7 2.75   8 2.75  31 2.92  42 2.96  25 2.98  16 2.99  27 3.04

  30  0.629  0.432  0.389-  13 2.77   8 2.85  31 2.88  47 2.88  32 2.92   6 2.94  27 2.95  44 2.98

  31  0.669  0.182  0.389-   6 2.77   7 2.85  30 2.88  46 2.88  29 2.92   5 2.94  28 2.95  27 2.98

  32  0.972  0.387  0.389-   6 2.74   8 2.75  15 2.75  30 2.92  25 2.95  26 2.98   7 2.99  44 3.04

  33  0.130  0.750  0.000-  11 2.77  10 2.85  34 2.88  18 2.88  35 2.92  12 2.94  40 2.95  37 2.98

  34  0.169  1.000  0.000-  12 2.77   1 2.85  33 2.88  17 2.88  20 2.92   3 2.94  21 2.96  40 2.98

  35  0.472  0.795  0.000-  12 2.74  10 2.75   9 2.75  33 2.92  38 2.95  39 2.98   1 2.99  37 3.04

  36  0.827  0.545  0.000-  11 2.74   9 2.75   2 2.75  18 2.92  39 2.95  22 2.98  10 2.99  24 3.04

  37  0.327  0.638  0.130-  13 2.74   9 2.74  11 2.75  12 2.75  39 2.92  26 2.96  18 2.96  41 2.98
                            33 2.98   4 2.99  43 3.04  35 3.04
  38  0.629  0.932  0.130-   5 2.77   1 2.77  12 2.85  39 2.88  23 2.88  40 2.92  14 2.94  10 2.94
                            43 2.95  35 2.95  28 2.98  20 2.98
  39  0.669  0.682  0.130-  14 2.77  10 2.77  11 2.85  38 2.88  22 2.88  37 2.92  13 2.94   9 2.94
                            44 2.95  36 2.95  43 2.98  35 2.98
  40  0.972  0.887  0.130-  14 2.74  10 2.74  12 2.75   3 2.75  38 2.92  41 2.95  33 2.95  42 2.98
                            34 2.98  11 2.99  28 3.04  20 3.04
  41  0.130  0.750  0.259-  11 2.77  15 2.77  14 2.85  42 2.88  26 2.88  43 2.92  12 2.94  16 2.94
                            40 2.95  48 2.95  37 2.98  45 2.98
  42  0.169  1.000  0.259-  12 2.77  16 2.77   5 2.85  41 2.88  25 2.88  28 2.92   3 2.94   7 2.94
                            21 2.96  29 2.96  40 2.98  48 2.98
  43  0.472  0.795  0.259-  12 2.74  16 2.74  14 2.75  13 2.75  41 2.92  38 2.95  46 2.95  39 2.98
                            47 2.98   5 2.99  37 3.04  45 3.04
  44  0.827  0.545  0.259-  11 2.74  15 2.74  13 2.75   6 2.75  26 2.92  39 2.95  47 2.95  22 2.98
                            30 2.98  14 2.99  24 3.04  32 3.04
  45  0.327  0.638  0.389-  13 2.74  15 2.75  16 2.75  47 2.92  26 2.96  41 2.98   8 2.99  43 3.04

  46  0.629  0.932  0.389-   5 2.77  16 2.85  47 2.88  31 2.88  48 2.92  14 2.94  43 2.95  28 2.98

  47  0.669  0.682  0.389-  14 2.77  15 2.85  46 2.88  30 2.88  45 2.92  13 2.94  44 2.95  43 2.98

  48  0.972  0.887  0.389-  14 2.74  16 2.75   7 2.75  46 2.92  41 2.95  42 2.98  15 2.99  28 3.04

 
  LATTYP: Found a simple monoclinic cell.
 ALAT       =    14.1991175643
 B/A-ratio  =     1.1520786030
 C/A-ratio  =     1.4312515168
 COS(beta)  =    -0.9429153931
  
  Lattice vectors:
  
 A1 = (  -8.3968966697, -11.4501993836,   0.0000000000)
 A2 = (   0.0000000000,   0.0000000000, -16.3584995270)
 A3 = (  16.7897971366,  11.4501993836,   0.0000000000)


Analysis of symmetry for initial positions (statically):
=====================================================================
 Subroutine PRICEL returns following result:
 
  LATTYP: Found a simple monoclinic cell.
 ALAT       =    10.1612542756
 B/A-ratio  =     1.6098897915
 C/A-ratio  =     1.7455682977
 COS(beta)  =    -0.9638066691
  
  Lattice vectors:
  
 A1 = (  -8.3948985683,  -5.7250996918,   0.0000000000)
 A2 = (   0.0000000000,   0.0000000000, -16.3584995270)
 A3 = (  16.7877990352,   5.7250996918,   0.0000000000)
 
   2 primitive cells build up your supercell.
 

 Routine SETGRP: Setting up the symmetry group for a 
 simple monoclinic supercell.


 Subroutine GETGRP returns: Found  1 space group operations
 (whereof  1 operations were pure point group operations)
 out of a pool of  4 trial point group operations.


The static configuration has the point symmetry C_1 .


Analysis of symmetry for dynamics (positions and initial velocities):
=====================================================================
 Subroutine PRICEL returns following result:
 
  LATTYP: Found a simple monoclinic cell.
 ALAT       =    10.1612542756
 B/A-ratio  =     1.6098897915
 C/A-ratio  =     1.7455682977
 COS(beta)  =    -0.9638066691
  
  Lattice vectors:
  
 A1 = (  -8.3948985683,  -5.7250996918,   0.0000000000)
 A2 = (   0.0000000000,   0.0000000000, -16.3584995270)
 A3 = (  16.7877990352,   5.7250996918,   0.0000000000)
 
   2 primitive cells build up your supercell.
 

 Routine SETGRP: Setting up the symmetry group for a 
 simple monoclinic supercell.


 Subroutine GETGRP returns: Found  1 space group operations
 (whereof  1 operations were pure point group operations)
 out of a pool of  4 trial point group operations.


The dynamic configuration has the point symmetry C_1 .


Analysis of constrained symmetry for selective dynamics:
=====================================================================
 Subroutine PRICEL returns following result:
 
  LATTYP: Found a simple monoclinic cell.
 ALAT       =    10.1612542756
 B/A-ratio  =     1.6098897915
 C/A-ratio  =     1.7455682977
 COS(beta)  =    -0.9638066691
  
  Lattice vectors:
  
 A1 = (  -8.3948985683,  -5.7250996918,   0.0000000000)
 A2 = (   0.0000000000,   0.0000000000, -16.3584995270)
 A3 = (  16.7877990352,   5.7250996918,   0.0000000000)
 
   2 primitive cells build up your supercell.
 

 Routine SETGRP: Setting up the symmetry group for a 
 simple monoclinic supercell.


 Subroutine GETGRP returns: Found  1 space group operations
 (whereof  1 operations were pure point group operations)
 out of a pool of  4 trial point group operations.


The constrained configuration has the point symmetry C_1 .


 Subroutine INISYM returns: Found  1 space group operations
 (whereof  1 operations are pure point group operations),
 and found     2 'primitive' translations

 
 
 KPOINTS: K-Points                                

Automatic generation of k-mesh.
Space group operators:
 irot       det(A)        alpha          n_x          n_y          n_z        tau_x        tau_y        tau_z
    1     1.000000     0.000000     1.000000     0.000000     0.000000     0.000000     0.000000     0.000000
 
 Subroutine IBZKPT returns following result:
 ===========================================
 
 Found      7 irreducible k-points:
 
 Following reciprocal coordinates:
            Coordinates               Weight
  0.000000  0.000000  0.000000      1.000000
  0.250000  0.000000  0.000000      2.000000
  0.500000  0.000000  0.000000      1.000000
  0.000000  0.333333  0.000000      2.000000
  0.250000  0.333333  0.000000      2.000000
  0.500000  0.333333  0.000000      2.000000
 -0.250000  0.333333  0.000000      2.000000
 
 Following cartesian coordinates:
            Coordinates               Weight
  0.000000  0.000000  0.000000      1.000000
  0.029787 -0.000010  0.000000      2.000000
  0.059574 -0.000021  0.000000      1.000000
  0.000000  0.029112  0.000000      2.000000
  0.029787  0.029101  0.000000      2.000000
  0.059574  0.029091  0.000000      2.000000
 -0.029787  0.029122  0.000000      2.000000
 


--------------------------------------------------------------------------------------------------------




 Dimension of arrays:
   k-points           NKPTS =      7   k-points in BZ     NKDIM =      7   number of bands    NBANDS=    408
   number of dos      NEDOS =    301   number of ions     NIONS =     48
   non local maximal  LDIM  =      6   non local SUM 2l+1 LMDIM =     18
   total plane-waves  NPLWV = 259200
   max r-space proj   IRMAX =   3145   max aug-charges    IRDMAX=  18798
   dimension x,y,z NGX =    48 NGY =   60 NGZ =   90
   dimension x,y,z NGXF=    96 NGYF=  120 NGZF=  180
   support grid    NGXF=    96 NGYF=  120 NGZF=  180
   ions per type =              16  32
   NGX,Y,Z   is equivalent  to a cutoff of   9.51,  8.71,  9.15 a.u.
   NGXF,Y,Z  is equivalent  to a cutoff of  19.02, 17.42, 18.29 a.u.

 SYSTEM =  alloy-surf                              
 POSCAR =  InPd2                                   

 Startparameter for this run:
   NWRITE =      0    write-flag & timer
   PREC   = normal    normal or accurate (medium, high low for compatibility)
   ISTART =      0    job   : 0-new  1-cont  2-samecut
   ICHARG =      2    charge: 1-file 2-atom 10-const
   ISPIN  =      1    spin polarized calculation?
   LNONCOLLINEAR =      F non collinear calculations
   LSORBIT =      F    spin-orbit coupling
   INIWAV =      1    electr: 0-lowe 1-rand  2-diag
   LASPH  =      F    aspherical Exc in radial PAW
   METAGGA=      F    non-selfconsistent MetaGGA calc.

 Electronic Relaxation 1
   ENCUT  =  450.0 eV  33.07 Ry    5.75 a.u.  14.52 19.81 28.29*2*pi/ulx,y,z
   ENINI  =  450.0     initial cutoff
   ENAUG  =  416.2 eV  augmentation charge cutoff
   NELM   =    100;   NELMIN=  5; NELMDL= -7     # of ELM steps 
   EDIFF  = 0.1E-04   stopping-criterion for ELM
   LREAL  =      T    real-space projection
   NLSPLINE    = F    spline interpolate recip. space projectors
   LCOMPAT=      F    compatible to vasp.4.4
   GGA_COMPAT  = T    GGA compatible to vasp.4.4-vasp.4.6
   LMAXPAW     = -100 max onsite density
   LMAXMIX     =    2 max onsite mixed and CHGCAR
   VOSKOWN=      0    Vosko Wilk Nusair interpolation
   ROPT   =   -0.00050  -0.00050
 Ionic relaxation
   EDIFFG = -.3E-01   stopping-criterion for IOM
   NSW    =    200    number of steps for IOM
   NBLOCK =      1;   KBLOCK =    200    inner block; outer block 
   IBRION =      1    ionic relax: 0-MD 1-quasi-New 2-CG
   NFREE  =      2    steps in history (QN), initial steepest desc. (CG)
   ISIF   =      2    stress and relaxation
   IWAVPR =     11    prediction:  0-non 1-charg 2-wave 3-comb
   ISYM   =      2    0-nonsym 1-usesym 2-fastsym
   LCORR  =      T    Harris-Foulkes like correction to forces

   POTIM  = 0.1500    time-step for ionic-motion
   TEIN   =    0.0    initial temperature
   TEBEG  =    0.0;   TEEND  =   0.0 temperature during run
   SMASS  =  -3.00    Nose mass-parameter (am)
   estimated Nose-frequenzy (Omega)   =  0.10E-29 period in steps =****** mass=  -0.161E-26a.u.
   SCALEE = 1.0000    scale energy and forces
   NPACO  =    256;   APACO  = 16.0  distance and # of slots for P.C.
   PSTRESS=    0.0 pullay stress

  Mass of Ions in am
   POMASS = 114.82106.42
  Ionic Valenz
   ZVAL   =   3.00 10.00
  Atomic Wigner-Seitz radii
   RWIGS  =  -1.00 -1.00
  virtual crystal weights 
   VCA    =   1.00  1.00
   NELECT =     368.0000    total number of electrons
   NUPDOWN=      -1.0000    fix difference up-down

 DOS related values:
   EMIN   =  10.00;   EMAX   =-10.00  energy-range for DOS
   EFERMI =   0.00
   ISMEAR =     0;   SIGMA  =   0.03  broadening in eV -4-tet -1-fermi 0-gaus

 Electronic relaxation 2 (details)
   IALGO  =     68    algorithm
   LDIAG  =      T    sub-space diagonalisation (order eigenvalues)
   LSUBROT=      F    optimize rotation matrix (better conditioning)
   TURBO    =      0    0=normal 1=particle mesh
   IRESTART =      0    0=no restart 2=restart with 2 vectors
   NREBOOT  =      0    no. of reboots
   NMIN     =      0    reboot dimension
   EREF     =   0.00    reference energy to select bands
   IMIX   =      4    mixing-type and parameters
     AMIX     =   0.10;   BMIX     =  3.00
     AMIX_MAG =   0.40;   BMIX_MAG =  3.00
     AMIN     =   0.01
     WC   =   100.;   INIMIX=   1;  MIXPRE=   1;  MAXMIX= -45

 Intra band minimization:
   WEIMIN = 0.0010     energy-eigenvalue tresh-hold
   EBREAK =  0.61E-08  absolut break condition
   DEPER  =   0.30     relativ break condition  

   TIME   =   0.40     timestep for ELM

  volume/ion in A,a.u.               =      32.75       221.02
  Fermi-wavevector in a.u.,A,eV,Ry     =   1.008946  1.906631 13.850349  1.017972
  Thomas-Fermi vector in A             =   2.141844
 
 Write flags
   LWAVE        =      F    write WAVECAR
   LDOWNSAMPLE  =      F    k-point downsampling of WAVECAR
   LCHARG       =      F    write CHGCAR
   LVTOT        =      F    write LOCPOT, total local potential
   LVHAR        =      F    write LOCPOT, Hartree potential only
   LELF         =      F    write electronic localiz. function (ELF)
   LORBIT       =      0    0 simple, 1 ext, 2 COOP (PROOUT), +10 PAW based schemes


 Dipole corrections
   LMONO  =      F    monopole corrections only (constant potential shift)
   LDIPOL =      T    correct potential (dipole corrections)
   IDIPOL =      3    1-x, 2-y, 3-z, 4-all directions 
   EPSILON=  1.0000000 bulk dielectric constant

 Exchange correlation treatment:
   GGA     =    PE    GGA type
   LEXCH   =     8    internal setting for exchange type
   VOSKOWN=      0    Vosko Wilk Nusair interpolation
   LHFCALC =     F    Hartree Fock is set to
   LHFONE  =     F    Hartree Fock one center treatment
   AEXX    =    0.0000 exact exchange contribution

 Linear response parameters
   LEPSILON=     F    determine dielectric tensor
   LRPA    =     F    only Hartree local field effects (RPA)
   LNABLA  =     F    use nabla operator in PAW spheres
   LVEL    =     F    velocity operator in full k-point grid
   LINTERFAST=   F  fast interpolation
   KINTER  =     0    interpolate to denser k-point grid
   CSHIFT  =0.1000    complex shift for real part using Kramers Kronig
   OMEGAMAX=  -1.0    maximum frequency
   DEG_THRESHOLD= 0.2000000E-02 threshold for treating states as degnerate
   RTIME   =   -0.100 relaxation time in fs
  (WPLASMAI=    0.000 imaginary part of plasma frequency in eV, 0.658/RTIME)
   DFIELD  = 0.0000000 0.0000000 0.0000000 field for delta impulse in time
 
 Orbital magnetization related:
   ORBITALMAG=     F  switch on orbital magnetization
   LCHIMAG   =     F  perturbation theory with respect to B field
   DQ        =  0.001000  dq finite difference perturbation B field
   LLRAUG    =     F  two centre corrections for induced B field



--------------------------------------------------------------------------------------------------------


 quasi-Newton-method for relaxation of ions
   using selective dynamics as specified on POSCAR
   WARNING: If single coordinates had been selected the selection of coordinates
            is made according to the corresponding   d i r e c t   coordinates!
            Don't support selection of single cartesian coordinates -- sorry ...
  !
 charge density and potential will be updated during run
 non-spin polarized calculation
 RMM-DIIS sequential band-by-band and
  variant of blocked Davidson during initial phase
 perform sub-space diagonalisation
    before iterative eigenvector-optimisation
 modified Broyden-mixing scheme, WC =      100.0
 initial mixing is a Kerker type mixing with AMIX =  0.1000 and BMIX =      3.0000
 Hartree-type preconditioning will be used
 using additional bands          224
 real space projection scheme for non local part
 use partial core corrections
 calculate Harris-corrections to forces 
   (improved forces if not selfconsistent)
 use gradient corrections 
 use of overlap-Matrix (Vanderbilt PP)
 Gauss-broadening in eV      SIGMA  =   0.03


--------------------------------------------------------------------------------------------------------


  energy-cutoff  :      450.00
  volume of cell :     1572.06
      direct lattice vectors                 reciprocal lattice vectors
     8.392900467  0.000000000  0.000000000     0.119148321 -0.000041584  0.000000000
     0.003996203 11.450199384  0.000000000     0.000000000  0.087334724  0.000000000
     0.000000000  0.000000000 16.358499527     0.000000000  0.000000000  0.061130301

  length of vectors
     8.392900467 11.450200081 16.358499527     0.119148328  0.087334724  0.061130301


 
 k-points in units of 2pi/SCALE and weight: K-Points                                
   0.00000000  0.00000000  0.00000000       0.083
   0.02978708 -0.00001040  0.00000000       0.167
   0.05957416 -0.00002079  0.00000000       0.083
   0.00000000  0.02911157  0.00000000       0.167
   0.02978708  0.02910118  0.00000000       0.167
   0.05957416  0.02909078  0.00000000       0.167
  -0.02978708  0.02912197  0.00000000       0.167
 
 k-points in reciprocal lattice and weights: K-Points                                
   0.00000000  0.00000000  0.00000000       0.083
   0.25000000  0.00000000  0.00000000       0.167
   0.50000000  0.00000000  0.00000000       0.083
   0.00000000  0.33333333  0.00000000       0.167
   0.25000000  0.33333333  0.00000000       0.167
   0.50000000  0.33333333  0.00000000       0.167
  -0.25000000  0.33333333  0.00000000       0.167
 
 position of ions in fractional coordinates (direct lattice) 
   0.50000000  0.05537500  0.00000000
   0.79879999  0.30522501  0.00000000
   0.00000000  0.12707500  0.12957001
   0.29850000  0.37722501  0.12957001
   0.50000000  0.05537500  0.25913000
   0.79879999  0.30522501  0.25913000
   0.00000000  0.12707500  0.38870001
   0.29850000  0.37722501  0.38870001
   0.50000000  0.55537500  0.00000000
   0.79879999  0.80522501  0.00000000
   0.00000000  0.62707500  0.12957001
   0.29850000  0.87722501  0.12957001
   0.50000000  0.55537500  0.25913000
   0.79879999  0.80522501  0.25913000
   0.00000000  0.62707500  0.38870001
   0.29850000  0.87722501  0.38870001
   0.12980001  0.25002500  0.00000000
   0.16910000  0.49997500  0.00000000
   0.47170001  0.29502499  0.00000000
   0.82700002  0.04487500  0.00000000
   0.32710001  0.13757500  0.12957001
   0.62949997  0.43222499  0.12957001
   0.66900003  0.18237500  0.12957001
   0.97160000  0.38742501  0.12957001
   0.12980001  0.25002500  0.25913000
   0.16910000  0.49997500  0.25913000
   0.47170001  0.29502499  0.25913000
   0.82700002  0.04487500  0.25913000
   0.32710001  0.13757500  0.38870001
   0.62949997  0.43222499  0.38870001
   0.66900003  0.18237500  0.38870001
   0.97160000  0.38742501  0.38870001
   0.12980001  0.75002500  0.00000000
   0.16910000  0.99997500  0.00000000
   0.47170001  0.79502499  0.00000000
   0.82700002  0.54487500  0.00000000
   0.32710001  0.63757500  0.12957001
   0.62949997  0.93222499  0.12957001
   0.66900003  0.68237500  0.12957001
   0.97160000  0.88742501  0.12957001
   0.12980001  0.75002500  0.25913000
   0.16910000  0.99997500  0.25913000
   0.47170001  0.79502499  0.25913000
   0.82700002  0.54487500  0.25913000
   0.32710001  0.63757500  0.38870001
   0.62949997  0.93222499  0.38870001
   0.66900003  0.68237500  0.38870001
   0.97160000  0.88742501  0.38870001
 
 position of ions in cartesian coordinates  (Angst):
   4.19667152  0.63405477  0.00000000
   6.70546857  3.49488727  0.00000000
   0.00050782  1.45503410  2.11957090
   2.50678827  4.31930159  2.11957090
   4.19667152  0.63405477  4.23897800
   6.70546857  3.49488727  4.23897800
   0.00050782  1.45503410  6.35854890
   2.50678827  4.31930159  6.35854890
   4.19866962  6.35915447  0.00000000
   6.70746667  9.21998696  0.00000000
   0.00250592  7.18013380  2.11957090
   2.50878637 10.04440129  2.11957090
   4.19866962  6.35915447  4.23897800
   6.70746667  9.21998696  4.23897800
   0.00250592  7.18013380  6.35854890
   2.50878637 10.04440129  6.35854890
   1.09039769  2.86283615  0.00000000
   1.42123748  5.72481339  0.00000000
   3.96011024  3.37809497  0.00000000
   6.94110820  0.51382769  0.00000000
   2.74586760  1.57526119  2.11957090
   5.28505787  4.94906230  2.11957090
   5.61557947  2.08823010  2.11957090
   8.15609029  4.43609356  2.11957090
   1.09039769  2.86283615  4.23897800
   1.42123748  5.72481339  4.23897800
   3.96011024  3.37809497  4.23897800
   6.94110820  0.51382769  4.23897800
   2.74586760  1.57526119  6.35854890
   5.28505787  4.94906230  6.35854890
   5.61557947  2.08823010  6.35854890
   8.15609029  4.43609356  6.35854890
   1.09239579  8.58793584  0.00000000
   1.42323558 11.44991308  0.00000000
   3.96210834  9.10319466  0.00000000
   6.94310630  6.23892738  0.00000000
   2.74786570  7.30036088  2.11957090
   5.28705597 10.67416199  2.11957090
   5.61757757  7.81332979  2.11957090
   8.15808839 10.16119325  2.11957090
   1.09239579  8.58793584  4.23897800
   1.42323558 11.44991308  4.23897800
   3.96210834  9.10319466  4.23897800
   6.94310630  6.23892738  4.23897800
   2.74786570  7.30036088  6.35854890
   5.28705597 10.67416199  6.35854890
   5.61757757  7.81332979  6.35854890
   8.15808839 10.16119325  6.35854890
 


--------------------------------------------------------------------------------------------------------


 k-point  1 :   0.0000 0.0000 0.0000  plane waves:   34099
 k-point  2 :   0.2500 0.0000 0.0000  plane waves:   34113
 k-point  3 :   0.5000 0.0000 0.0000  plane waves:   33978
 k-point  4 :   0.0000 0.3333 0.0000  plane waves:   34076
 k-point  5 :   0.2500 0.3333 0.0000  plane waves:   34074
 k-point  6 :   0.5000 0.3333 0.0000  plane waves:   34054
 k-point  7 :  -0.2500 0.3333 0.0000  plane waves:   34068

 maximum and minimum number of plane-waves per node :     34113    33978

 maximum number of plane-waves:     34113
 maximum index in each direction: 
   IXMAX=   14   IYMAX=   19   IZMAX=   28
   IXMIN=  -15   IYMIN=  -20   IZMIN=  -28


 serial   3D FFT for wavefunctions
 parallel 3D FFT for charge:
    minimum data exchange during FFTs selected (reduces bandwidth)


 total amount of memory used by VASP MPI-rank0   209464. kBytes
=======================================================================

   base      :      30000. kBytes
   nonlr-proj:      18706. kBytes
   fftplans  :       6916. kBytes
   grid      :      20167. kBytes
   one-center:        746. kBytes
   wavefun   :     132929. kBytes
 
     INWAV:  cpu time    0.0000: real time    0.0002
 Broyden mixing: mesh for mixing (old mesh)
   NGX = 29   NGY = 39   NGZ = 57
  (NGX  = 96   NGY  =120   NGZ  =180)
  gives a total of  64467 points

 initial charge density was supplied:
 charge density of overlapping atoms calculated
 number of electron     368.0000000 magnetization 
 keeping initial charge density in first step


--------------------------------------------------------------------------------------------------------


 Maximum index for non-local projection operator         3011
 Maximum index for augmentation-charges         1605 (set IRDMAX)


--------------------------------------------------------------------------------------------------------


 First call to EWALD:  gamma=   0.152
 Maximum number of real-space cells 4x 3x 2
 Maximum number of reciprocal cells 2x 3x 4

    FEWALD:  cpu time    0.0040: real time    0.0037


--------------------------------------- Iteration      1(   1)  ---------------------------------------


    POTLOK:  cpu time    0.2610: real time    0.2639
    SETDIJ:  cpu time    0.0270: real time    0.0273
     EDDAV:  cpu time   79.2010: real time   79.3781
       DOS:  cpu time    0.0020: real time    0.0019
    --------------------------------------------
      LOOP:  cpu time   79.4909: real time   79.6712

 eigenvalue-minimisations  :  5712
 total energy-change (2. order) : 0.1993653E+04  (-0.1375247E+05)
 number of electron     368.0000000 magnetization 
 augmentation part      368.0000000 magnetization 

 DIPCOR: dipole corrections for dipol
 direction  3 min pos   126,
 dipolmoment           0.000000      0.000000      0.000159 electrons x Angstroem
 Tr[quadrupol]     -6120.529566

 energy correction for charged system         0.000000 eV
 dipol+quadrupol energy correction           -0.000000 eV
 added-field ion interaction          0.000010 eV  (added to PSCEN)


 Free energy of the ion-electron system (eV)
  ---------------------------------------------------
  alpha Z        PSCENC =       484.27740062
  Ewald energy   TEWEN  =     18221.12635985
  -Hartree energ DENC   =    -46396.77633370
  -exchange      EXHF   =         0.00000000
  -V(xc)+E(xc)   XCENC  =     -1838.72747218
  PAW double counting   =     27323.18997161   -24382.00609921
  entropy T*S    EENTRO =        -0.01997371
  eigenvalues    EBANDS =      1810.00476580
  atomic energy  EATOM  =     26772.58429871
  Solvation  Ediel_sol  =         0.00000000
  ---------------------------------------------------
  free energy    TOTEN  =      1993.65291781 eV

  energy without entropy =     1993.67289152  energy(sigma->0) =     1993.66290466


--------------------------------------------------------------------------------------------------------




--------------------------------------- Iteration      1(   2)  ---------------------------------------


     EDDAV:  cpu time   87.6977: real time   87.8973
       DOS:  cpu time    0.0020: real time    0.0018
    --------------------------------------------
      LOOP:  cpu time   87.6997: real time   87.8991

 eigenvalue-minimisations  :  6456
 total energy-change (2. order) :-0.2139694E+04  (-0.1962918E+04)
 number of electron     368.0000000 magnetization 
 augmentation part      368.0000000 magnetization 

 DIPCOR: dipole corrections for dipol
 direction  3 min pos   126,
 dipolmoment           0.000000      0.000000      0.000159 electrons x Angstroem
 Tr[quadrupol]     -6120.529566

 energy correction for charged system         0.000000 eV
 dipol+quadrupol energy correction           -0.000000 eV
 added-field ion interaction          0.000010 eV  (added to PSCEN)


 Free energy of the ion-electron system (eV)
  ---------------------------------------------------
  alpha Z        PSCENC =       484.27740062
  Ewald energy   TEWEN  =     18221.12635985
  -Hartree energ DENC   =    -46396.77633370
  -exchange      EXHF   =         0.00000000
  -V(xc)+E(xc)   XCENC  =     -1838.72747218
  PAW double counting   =     27323.18997161   -24382.00609921
  entropy T*S    EENTRO =        -0.01014994
  eigenvalues    EBANDS =      -329.69944410
  atomic energy  EATOM  =     26772.58429871
  Solvation  Ediel_sol  =         0.00000000
  ---------------------------------------------------
  free energy    TOTEN  =      -146.04146832 eV

  energy without entropy =     -146.03131839  energy(sigma->0) =     -146.03639335


--------------------------------------------------------------------------------------------------------




--------------------------------------- Iteration      1(   3)  ---------------------------------------


     EDDAV:  cpu time   90.8762: real time   91.0806
       DOS:  cpu time    0.0020: real time    0.0019
    --------------------------------------------
      LOOP:  cpu time   90.8782: real time   91.0825

 eigenvalue-minimisations  :  6732
 total energy-change (2. order) :-0.7884758E+02  (-0.7708287E+02)
 number of electron     368.0000000 magnetization 
 augmentation part      368.0000000 magnetization 

 DIPCOR: dipole corrections for dipol
 direction  3 min pos   126,
 dipolmoment           0.000000      0.000000      0.000159 electrons x Angstroem
 Tr[quadrupol]     -6120.529566

 energy correction for charged system         0.000000 eV
 dipol+quadrupol energy correction           -0.000000 eV
 added-field ion interaction          0.000010 eV  (added to PSCEN)


 Free energy of the ion-electron system (eV)
  ---------------------------------------------------
  alpha Z        PSCENC =       484.27740062
  Ewald energy   TEWEN  =     18221.12635985
  -Hartree energ DENC   =    -46396.77633370
  -exchange      EXHF   =         0.00000000
  -V(xc)+E(xc)   XCENC  =     -1838.72747218
  PAW double counting   =     27323.18997161   -24382.00609921
  entropy T*S    EENTRO =        -0.00661517
  eigenvalues    EBANDS =      -408.55055663
  atomic energy  EATOM  =     26772.58429871
  Solvation  Ediel_sol  =         0.00000000
  ---------------------------------------------------
  free energy    TOTEN  =      -224.88904609 eV

  energy without entropy =     -224.88243092  energy(sigma->0) =     -224.88573850


--------------------------------------------------------------------------------------------------------




--------------------------------------- Iteration      1(   4)  ---------------------------------------


     EDDAV:  cpu time   95.3615: real time   95.5762
       DOS:  cpu time    0.0020: real time    0.0019
    --------------------------------------------
      LOOP:  cpu time   95.3635: real time   95.5781

 eigenvalue-minimisations  :  7152
 total energy-change (2. order) :-0.1331488E+01  (-0.1330722E+01)
 number of electron     368.0000000 magnetization 
 augmentation part      368.0000000 magnetization 

 DIPCOR: dipole corrections for dipol
 direction  3 min pos   126,
 dipolmoment           0.000000      0.000000      0.000159 electrons x Angstroem
 Tr[quadrupol]     -6120.529566

 energy correction for charged system         0.000000 eV
 dipol+quadrupol energy correction           -0.000000 eV
 added-field ion interaction          0.000010 eV  (added to PSCEN)


 Free energy of the ion-electron system (eV)
  ---------------------------------------------------
  alpha Z        PSCENC =       484.27740062
  Ewald energy   TEWEN  =     18221.12635985
  -Hartree energ DENC   =    -46396.77633370
  -exchange      EXHF   =         0.00000000
  -V(xc)+E(xc)   XCENC  =     -1838.72747218
  PAW double counting   =     27323.18997161   -24382.00609921
  entropy T*S    EENTRO =        -0.00673637
  eigenvalues    EBANDS =      -409.88192359
  atomic energy  EATOM  =     26772.58429871
  Solvation  Ediel_sol  =         0.00000000
  ---------------------------------------------------
  free energy    TOTEN  =      -226.22053425 eV

  energy without entropy =     -226.21379788  energy(sigma->0) =     -226.21716606


--------------------------------------------------------------------------------------------------------




--------------------------------------- Iteration      1(   5)  ---------------------------------------


     EDDAV:  cpu time   96.8153: real time   97.0318
       DOS:  cpu time    0.0020: real time    0.0019
    --------------------------------------------
      LOOP:  cpu time   96.8173: real time   97.0336

 eigenvalue-minimisations  :  7296
 total energy-change (2. order) :-0.2786080E-01  (-0.2785947E-01)
 number of electron     368.0000000 magnetization 
 augmentation part      368.0000000 magnetization 

 DIPCOR: dipole corrections for dipol
 direction  3 min pos   126,
 dipolmoment           0.000000      0.000000      0.000159 electrons x Angstroem
 Tr[quadrupol]     -6120.529566

 energy correction for charged system         0.000000 eV
 dipol+quadrupol energy correction           -0.000000 eV
 added-field ion interaction          0.000010 eV  (added to PSCEN)


 Free energy of the ion-electron system (eV)
  ---------------------------------------------------
  alpha Z        PSCENC =       484.27740062
  Ewald energy   TEWEN  =     18221.12635985
  -Hartree energ DENC   =    -46396.77633370
  -exchange      EXHF   =         0.00000000
  -V(xc)+E(xc)   XCENC  =     -1838.72747218
  PAW double counting   =     27323.18997161   -24382.00609921
  entropy T*S    EENTRO =        -0.00673460
  eigenvalues    EBANDS =      -409.90978617
  atomic energy  EATOM  =     26772.58429871
  Solvation  Ediel_sol  =         0.00000000
  ---------------------------------------------------
  free energy    TOTEN  =      -226.24839505 eV

  energy without entropy =     -226.24166045  energy(sigma->0) =     -226.24502775


--------------------------------------------------------------------------------------------------------




--------------------------------------- Iteration      1(   6)  ---------------------------------------


     EDDAV:  cpu time   97.5092: real time   97.8997
       DOS:  cpu time    0.0020: real time    0.0019
    --------------------------------------------
      LOOP:  cpu time   97.5112: real time   97.9016

 eigenvalue-minimisations  :  7368
 total energy-change (2. order) :-0.1093898E-02  (-0.1093891E-02)
 number of electron     368.0000000 magnetization 
 augmentation part      368.0000000 magnetization 

 DIPCOR: dipole corrections for dipol
 direction  3 min pos   126,
 dipolmoment           0.000000      0.000000      0.000159 electrons x Angstroem
 Tr[quadrupol]     -6120.529566

 energy correction for charged system         0.000000 eV
 dipol+quadrupol energy correction           -0.000000 eV
 added-field ion interaction          0.000010 eV  (added to PSCEN)


 Free energy of the ion-electron system (eV)
  ---------------------------------------------------
  alpha Z        PSCENC =       484.27740062
  Ewald energy   TEWEN  =     18221.12635985
  -Hartree energ DENC   =    -46396.77633370
  -exchange      EXHF   =         0.00000000
  -V(xc)+E(xc)   XCENC  =     -1838.72747218
  PAW double counting   =     27323.18997161   -24382.00609921
  entropy T*S    EENTRO =        -0.00673462
  eigenvalues    EBANDS =      -409.91088004
  atomic energy  EATOM  =     26772.58429871
  Solvation  Ediel_sol  =         0.00000000
  ---------------------------------------------------
  free energy    TOTEN  =      -226.24948895 eV

  energy without entropy =     -226.24275432  energy(sigma->0) =     -226.24612164


--------------------------------------------------------------------------------------------------------




--------------------------------------- Iteration      1(   7)  ---------------------------------------


     EDDAV:  cpu time   92.0290: real time   93.0686
       DOS:  cpu time    0.0020: real time    0.0019
    CHARGE:  cpu time    1.4568: real time    1.4772
    MIXING:  cpu time    0.0070: real time    0.0068
    --------------------------------------------
      LOOP:  cpu time   93.4948: real time   94.5546

 eigenvalue-minimisations  :  7032
 total energy-change (2. order) :-0.5141741E-04  (-0.5141747E-04)
 number of electron     368.0000249 magnetization 
 augmentation part      123.5698495 magnetization 

 DIPCOR: dipole corrections for dipol
 direction  3 min pos   126,
 dipolmoment           0.000000      0.000000      0.000159 electrons x Angstroem
 Tr[quadrupol]     -6120.529566

 energy correction for charged system         0.000000 eV
 dipol+quadrupol energy correction           -0.000000 eV
 added-field ion interaction          0.000010 eV  (added to PSCEN)


 Broyden mixing:
  rms(total) = 0.27699E+01    rms(broyden)= 0.27698E+01
  rms(prec ) = 0.29441E+01
  weight for this iteration     100.00

 Free energy of the ion-electron system (eV)
  ---------------------------------------------------
  alpha Z        PSCENC =       484.27740062
  Ewald energy   TEWEN  =     18221.12635985
  -Hartree energ DENC   =    -46396.77633370
  -exchange      EXHF   =         0.00000000
  -V(xc)+E(xc)   XCENC  =     -1838.72747218
  PAW double counting   =     27323.18997161   -24382.00609921
  entropy T*S    EENTRO =        -0.00673462
  eigenvalues    EBANDS =      -409.91093146
  atomic energy  EATOM  =     26772.58429871
  Solvation  Ediel_sol  =         0.00000000
  ---------------------------------------------------
  free energy    TOTEN  =      -226.24954036 eV

  energy without entropy =     -226.24280574  energy(sigma->0) =     -226.24617305


--------------------------------------------------------------------------------------------------------




--------------------------------------- Iteration      1(   8)  ---------------------------------------


    POTLOK:  cpu time    0.2510: real time    0.2542
    SETDIJ:  cpu time    0.0280: real time    0.0282
    EDDIAG:  cpu time   13.0340: real time   13.1777
  RMM-DIIS:  cpu time   30.8803: real time   31.2553
    ORTHCH:  cpu time    4.7973: real time    4.8408
       DOS:  cpu time    0.0010: real time    0.0019
    CHARGE:  cpu time    1.4468: real time    1.4689
    MIXING:  cpu time    0.0070: real time    0.0070
    --------------------------------------------
      LOOP:  cpu time   50.4453: real time   51.0339

 eigenvalue-minimisations  :  5712
 total energy-change (2. order) : 0.9803493E+00  (-0.8113353E-02)
 number of electron     368.0000250 magnetization 
 augmentation part      123.9402931 magnetization 

 DIPCOR: dipole corrections for dipol
 direction  3 min pos   126,
 dipolmoment           0.000000      0.000000      0.000061 electrons x Angstroem
 Tr[quadrupol]     -6121.314072

 energy correction for charged system         0.000000 eV
 dipol+quadrupol energy correction           -0.000000 eV
 added-field ion interaction          0.000004 eV  (added to PSCEN)


 Broyden mixing:
  rms(total) = 0.24776E+01    rms(broyden)= 0.24776E+01
  rms(prec ) = 0.26442E+01
  weight for this iteration     100.00

 eigenvalues of (default mixing * dielectric matrix)
  average eigenvalue GAMMA=   9.1023
  9.1023

 Free energy of the ion-electron system (eV)
  ---------------------------------------------------
  alpha Z        PSCENC =       484.27739415
  Ewald energy   TEWEN  =     18221.12635985
  -Hartree energ DENC   =    -46395.82971389
  -exchange      EXHF   =         0.00000000
  -V(xc)+E(xc)   XCENC  =     -1838.88428506
  PAW double counting   =     27877.10165015   -24941.57122735
  entropy T*S    EENTRO =        -0.00683925
  eigenvalues    EBANDS =      -404.06682843
  atomic energy  EATOM  =     26772.58429871
  Solvation  Ediel_sol  =         0.00000000
  ---------------------------------------------------
  free energy    TOTEN  =      -225.26919111 eV

  energy without entropy =     -225.26235185  energy(sigma->0) =     -225.26577148


--------------------------------------------------------------------------------------------------------




--------------------------------------- Iteration      1(   9)  ---------------------------------------


    POTLOK:  cpu time    0.2460: real time    0.2460
    SETDIJ:  cpu time    0.0270: real time    0.0275
    EDDIAG:  cpu time   13.0290: real time   13.1721
  RMM-DIIS:  cpu time   30.7743: real time   31.1492
    ORTHCH:  cpu time    4.7833: real time    4.8347
       DOS:  cpu time    0.0010: real time    0.0019
    CHARGE:  cpu time    1.4588: real time    1.4712
    MIXING:  cpu time    0.0080: real time    0.0076
    --------------------------------------------
      LOOP:  cpu time   50.3273: real time   50.9103

 eigenvalue-minimisations  :  5712
 total energy-change (2. order) : 0.5159321E+01  (-0.5351137E+00)
 number of electron     368.0000254 magnetization 
 augmentation part      126.6485560 magnetization 

 DIPCOR: dipole corrections for dipol
 direction  3 min pos   124,
 dipolmoment           0.000000      0.000000      0.033202 electrons x Angstroem
 Tr[quadrupol]     -6128.064960

 energy correction for charged system         0.000000 eV
 dipol+quadrupol energy correction           -0.000064 eV
 added-field ion interaction         -0.254672 eV  (added to PSCEN)


 Broyden mixing:
  rms(total) = 0.45906E+00    rms(broyden)= 0.45903E+00
  rms(prec ) = 0.62344E+00
  weight for this iteration     100.00

 eigenvalues of (default mixing * dielectric matrix)
  average eigenvalue GAMMA=   5.7687
  2.1117  9.4258

 Free energy of the ion-electron system (eV)
  ---------------------------------------------------
  alpha Z        PSCENC =       484.02265434
  Ewald energy   TEWEN  =     18221.12635985
  -Hartree energ DENC   =    -46400.15767824
  -exchange      EXHF   =         0.00000000
  -V(xc)+E(xc)   XCENC  =     -1839.61558542
  PAW double counting   =     34049.74688590   -31159.06382149
  entropy T*S    EENTRO =        -0.00753167
  eigenvalues    EBANDS =      -348.74545253
  atomic energy  EATOM  =     26772.58429871
  Solvation  Ediel_sol  =         0.00000000
  ---------------------------------------------------
  free energy    TOTEN  =      -220.10987054 eV

  energy without entropy =     -220.10233887  energy(sigma->0) =     -220.10610471


--------------------------------------------------------------------------------------------------------




--------------------------------------- Iteration      1(  10)  ---------------------------------------


    POTLOK:  cpu time    0.2440: real time    0.2485
    SETDIJ:  cpu time    0.0280: real time    0.0275
    EDDIAG:  cpu time   12.9910: real time   13.1358
  RMM-DIIS:  cpu time   30.3814: real time   30.7523
    ORTHCH:  cpu time    4.7793: real time    4.8318
       DOS:  cpu time    0.0020: real time    0.0019
    CHARGE:  cpu time    1.4458: real time    1.4685
    MIXING:  cpu time    0.0080: real time    0.0079
    --------------------------------------------
      LOOP:  cpu time   49.8794: real time   50.4741

 eigenvalue-minimisations  :  5714
 total energy-change (2. order) : 0.5491341E+00  (-0.2274016E-01)
 number of electron     368.0000252 magnetization 
 augmentation part      126.3869605 magnetization 

 DIPCOR: dipole corrections for dipol
 direction  3 min pos   127,
 dipolmoment           0.000000      0.000000     -0.043969 electrons x Angstroem
 Tr[quadrupol]     -6129.271886

 energy correction for charged system         0.000000 eV
 dipol+quadrupol energy correction           -0.000112 eV
 added-field ion interaction         -0.172969 eV  (added to PSCEN)


 Broyden mixing:
  rms(total) = 0.36421E+00    rms(broyden)= 0.36421E+00
  rms(prec ) = 0.50086E+00
  weight for this iteration     100.00

 eigenvalues of (default mixing * dielectric matrix)
  average eigenvalue GAMMA=   5.3642
  1.0573  8.7325  6.3030

 Free energy of the ion-electron system (eV)
  ---------------------------------------------------
  alpha Z        PSCENC =       484.10430941
  Ewald energy   TEWEN  =     18221.12635985
  -Hartree energ DENC   =    -46425.78891424
  -exchange      EXHF   =         0.00000000
  -V(xc)+E(xc)   XCENC  =     -1838.93525855
  PAW double counting   =     34565.56069236   -31675.66488417
  entropy T*S    EENTRO =        -0.00828818
  eigenvalues    EBANDS =      -322.53905162
  atomic energy  EATOM  =     26772.58429871
  Solvation  Ediel_sol  =         0.00000000
  ---------------------------------------------------
  free energy    TOTEN  =      -219.56073641 eV

  energy without entropy =     -219.55244823  energy(sigma->0) =     -219.55659232


--------------------------------------------------------------------------------------------------------




--------------------------------------- Iteration      1(  11)  ---------------------------------------


    POTLOK:  cpu time    0.2440: real time    0.2450
    SETDIJ:  cpu time    0.0280: real time    0.0274
    EDDIAG:  cpu time   12.9760: real time   13.1197
  RMM-DIIS:  cpu time   30.7653: real time   31.1392
    ORTHCH:  cpu time    4.7783: real time    4.8219
       DOS:  cpu time    0.0010: real time    0.0019
    CHARGE:  cpu time    1.4408: real time    1.4632
    MIXING:  cpu time    0.0090: real time    0.0083
    --------------------------------------------
      LOOP:  cpu time   50.2424: real time   50.8266

 eigenvalue-minimisations  :  5712
 total energy-change (2. order) : 0.3899211E+00  (-0.1528012E-01)
 number of electron     368.0000251 magnetization 
 augmentation part      125.8478355 magnetization 

 DIPCOR: dipole corrections for dipol
 direction  3 min pos   129,
 dipolmoment           0.000000      0.000000     -0.091494 electrons x Angstroem
 Tr[quadrupol]     -6130.303321

 energy correction for charged system         0.000000 eV
 dipol+quadrupol energy correction           -0.000484 eV
 added-field ion interaction         -1.067737 eV  (added to PSCEN)


 Broyden mixing:
  rms(total) = 0.28030E+00    rms(broyden)= 0.28030E+00
  rms(prec ) = 0.39617E+00
  weight for this iteration     100.00

 eigenvalues of (default mixing * dielectric matrix)
  average eigenvalue GAMMA=   4.6803
  7.5303  7.5303  0.9520  2.7087

 Free energy of the ion-electron system (eV)
  ---------------------------------------------------
  alpha Z        PSCENC =       483.20916945
  Ewald energy   TEWEN  =     18221.12635985
  -Hartree energ DENC   =    -46457.44773153
  -exchange      EXHF   =         0.00000000
  -V(xc)+E(xc)   XCENC  =     -1838.02507453
  PAW double counting   =     34550.91885528   -31658.42893239
  entropy T*S    EENTRO =        -0.00889830
  eigenvalues    EBANDS =      -293.09886184
  atomic energy  EATOM  =     26772.58429871
  Solvation  Ediel_sol  =         0.00000000
  ---------------------------------------------------
  free energy    TOTEN  =      -219.17081529 eV

  energy without entropy =     -219.16191699  energy(sigma->0) =     -219.16636614


--------------------------------------------------------------------------------------------------------




--------------------------------------- Iteration      1(  12)  ---------------------------------------


    POTLOK:  cpu time    0.2450: real time    0.2479
    SETDIJ:  cpu time    0.0270: real time    0.0277
    EDDIAG:  cpu time   12.9650: real time   13.1130
  RMM-DIIS:  cpu time   30.7283: real time   31.1038
    ORTHCH:  cpu time    4.7873: real time    4.8317
       DOS:  cpu time    0.0020: real time    0.0019
    CHARGE:  cpu time    1.4488: real time    1.4712
    MIXING:  cpu time    0.0090: real time    0.0085
    --------------------------------------------
      LOOP:  cpu time   50.2124: real time   50.8056

 eigenvalue-minimisations  :  5722
 total energy-change (2. order) : 0.2954806E+00  (-0.8930949E-02)
 number of electron     368.0000250 magnetization 
 augmentation part      125.4811963 magnetization 

 DIPCOR: dipole corrections for dipol
 direction  3 min pos   130,
 dipolmoment           0.000000      0.000000     -0.058237 electrons x Angstroem
 Tr[quadrupol]     -6131.415604

 energy correction for charged system         0.000000 eV
 dipol+quadrupol energy correction           -0.000196 eV
 added-field ion interaction         -0.904892 eV  (added to PSCEN)


 Broyden mixing:
  rms(total) = 0.23772E+00    rms(broyden)= 0.23771E+00
  rms(prec ) = 0.31254E+00
  weight for this iteration     100.00

 eigenvalues of (default mixing * dielectric matrix)
  average eigenvalue GAMMA=   4.8488
  8.7817  8.7817  4.4592  1.1106  1.1106

 Free energy of the ion-electron system (eV)
  ---------------------------------------------------
  alpha Z        PSCENC =       483.37230194
  Ewald energy   TEWEN  =     18221.12635985
  -Hartree energ DENC   =    -46484.41841094
  -exchange      EXHF   =         0.00000000
  -V(xc)+E(xc)   XCENC  =     -1837.21665067
  PAW double counting   =     34396.49997806   -31501.70996869
  entropy T*S    EENTRO =        -0.01106163
  eigenvalues    EBANDS =      -269.10218135
  atomic energy  EATOM  =     26772.58429871
  Solvation  Ediel_sol  =         0.00000000
  ---------------------------------------------------
  free energy    TOTEN  =      -218.87533472 eV

  energy without entropy =     -218.86427309  energy(sigma->0) =     -218.86980391


--------------------------------------------------------------------------------------------------------




--------------------------------------- Iteration      1(  13)  ---------------------------------------


    POTLOK:  cpu time    0.2450: real time    0.2458
    SETDIJ:  cpu time    0.0280: real time    0.0277
    EDDIAG:  cpu time   12.9870: real time   13.1308
  RMM-DIIS:  cpu time   30.8263: real time   31.2067
    ORTHCH:  cpu time    4.7643: real time    4.8165
       DOS:  cpu time    0.0020: real time    0.0018
    CHARGE:  cpu time    1.4558: real time    1.4691
    MIXING:  cpu time    0.0100: real time    0.0098
    --------------------------------------------
      LOOP:  cpu time   50.3184: real time   50.9082

 eigenvalue-minimisations  :  5738
 total energy-change (2. order) : 0.1657978E+00  (-0.7029651E-02)
 number of electron     368.0000250 magnetization 
 augmentation part      125.2788581 magnetization 

 DIPCOR: dipole corrections for dipol
 direction  3 min pos   126,
 dipolmoment           0.000000      0.000000      0.083047 electrons x Angstroem
 Tr[quadrupol]     -6132.354717

 energy correction for charged system         0.000000 eV
 dipol+quadrupol energy correction           -0.000399 eV
 added-field ion interaction          0.005461 eV  (added to PSCEN)


 Broyden mixing:
  rms(total) = 0.21748E+00    rms(broyden)= 0.21748E+00
  rms(prec ) = 0.31789E+00
  weight for this iteration     100.00

 eigenvalues of (default mixing * dielectric matrix)
  average eigenvalue GAMMA=   5.6283
 11.2522 11.2522  6.5738  2.6894  1.0663  0.9361

 Free energy of the ion-electron system (eV)
  ---------------------------------------------------
  alpha Z        PSCENC =       484.28245207
  Ewald energy   TEWEN  =     18221.12635985
  -Hartree energ DENC   =    -46505.41674428
  -exchange      EXHF   =         0.00000000
  -V(xc)+E(xc)   XCENC  =     -1836.55511759
  PAW double counting   =     34198.12424023   -31301.81784966
  entropy T*S    EENTRO =        -0.00717391
  eigenvalues    EBANDS =      -251.03000230
  atomic energy  EATOM  =     26772.58429871
  Solvation  Ediel_sol  =         0.00000000
  ---------------------------------------------------
  free energy    TOTEN  =      -218.70953687 eV

  energy without entropy =     -218.70236297  energy(sigma->0) =     -218.70594992


--------------------------------------------------------------------------------------------------------




--------------------------------------- Iteration      1(  14)  ---------------------------------------


    POTLOK:  cpu time    0.2450: real time    0.2480
    SETDIJ:  cpu time    0.0280: real time    0.0279
    EDDIAG:  cpu time   12.9800: real time   13.1248
  RMM-DIIS:  cpu time   30.9483: real time   31.1967
    ORTHCH:  cpu time    4.7943: real time    4.8043
       DOS:  cpu time    0.0010: real time    0.0018
    CHARGE:  cpu time    1.4638: real time    1.4668
    MIXING:  cpu time    0.0100: real time    0.0097
    --------------------------------------------
      LOOP:  cpu time   50.4703: real time   50.8799

 eigenvalue-minimisations  :  5726
 total energy-change (2. order) :-0.2305133E-01  (-0.1222395E-01)
 number of electron     368.0000250 magnetization 
 augmentation part      125.2592139 magnetization 

 DIPCOR: dipole corrections for dipol
 direction  3 min pos   128,
 dipolmoment           0.000000      0.000000     -0.197538 electrons x Angstroem
 Tr[quadrupol]     -6133.214305

 energy correction for charged system         0.000000 eV
 dipol+quadrupol energy correction           -0.002257 eV
 added-field ion interaction         -1.541184 eV  (added to PSCEN)


 Broyden mixing:
  rms(total) = 0.25641E+00    rms(broyden)= 0.25640E+00
  rms(prec ) = 0.46127E+00
  weight for this iteration     100.00

 eigenvalues of (default mixing * dielectric matrix)
  average eigenvalue GAMMA=   4.7948
 11.2284 11.2284  6.5219  2.1842  0.9282  1.1156  0.3573

 Free energy of the ion-electron system (eV)
  ---------------------------------------------------
  alpha Z        PSCENC =       482.73394975
  Ewald energy   TEWEN  =     18221.12635985
  -Hartree energ DENC   =    -46518.27115984
  -exchange      EXHF   =         0.00000000
  -V(xc)+E(xc)   XCENC  =     -1836.11737083
  PAW double counting   =     34011.64263882   -31115.16435495
  entropy T*S    EENTRO =        -0.00212649
  eigenvalues    EBANDS =      -237.26482323
  atomic energy  EATOM  =     26772.58429871
  Solvation  Ediel_sol  =         0.00000000
  ---------------------------------------------------
  free energy    TOTEN  =      -218.73258820 eV

  energy without entropy =     -218.73046171  energy(sigma->0) =     -218.73152496


--------------------------------------------------------------------------------------------------------




--------------------------------------- Iteration      1(  15)  ---------------------------------------


    POTLOK:  cpu time    0.2440: real time    0.2444
    SETDIJ:  cpu time    0.0270: real time    0.0275
    EDDIAG:  cpu time   13.0830: real time   13.1119
  RMM-DIIS:  cpu time   31.0673: real time   31.1369
    ORTHCH:  cpu time    4.7973: real time    4.8078
       DOS:  cpu time    0.0020: real time    0.0019
    CHARGE:  cpu time    1.4628: real time    1.4663
    MIXING:  cpu time    0.0100: real time    0.0100
    --------------------------------------------
      LOOP:  cpu time   50.6933: real time   50.8066

 eigenvalue-minimisations  :  5739
 total energy-change (2. order) : 0.2039480E+00  (-0.3838196E-02)
 number of electron     368.0000250 magnetization 
 augmentation part      125.3079568 magnetization 

 DIPCOR: dipole corrections for dipol
 direction  3 min pos   129,
 dipolmoment           0.000000      0.000000     -0.119284 electrons x Angstroem
 Tr[quadrupol]     -6133.819234

 energy correction for charged system         0.000000 eV
 dipol+quadrupol energy correction           -0.000823 eV
 added-field ion interaction         -1.392054 eV  (added to PSCEN)


 Broyden mixing:
  rms(total) = 0.15841E+00    rms(broyden)= 0.15841E+00
  rms(prec ) = 0.24271E+00
  weight for this iteration     100.00

 eigenvalues of (default mixing * dielectric matrix)
  average eigenvalue GAMMA=   4.6420
 11.7207 11.7207  6.6094  2.4201  0.9298  1.1137  1.3108  1.3108

 Free energy of the ion-electron system (eV)
  ---------------------------------------------------
  alpha Z        PSCENC =       482.88451318
  Ewald energy   TEWEN  =     18221.12635985
  -Hartree energ DENC   =    -46525.71206203
  -exchange      EXHF   =         0.00000000
  -V(xc)+E(xc)   XCENC  =     -1835.87528615
  PAW double counting   =     33966.30751995   -31069.92100685
  entropy T*S    EENTRO =        -0.00911185
  eigenvalues    EBANDS =      -229.91386502
  atomic energy  EATOM  =     26772.58429871
  Solvation  Ediel_sol  =         0.00000000
  ---------------------------------------------------
  free energy    TOTEN  =      -218.52864021 eV

  energy without entropy =     -218.51952836  energy(sigma->0) =     -218.52408428


--------------------------------------------------------------------------------------------------------




--------------------------------------- Iteration      1(  16)  ---------------------------------------


    POTLOK:  cpu time    0.2450: real time    0.2472
    SETDIJ:  cpu time    0.0270: real time    0.0277
    EDDIAG:  cpu time   13.0880: real time   13.1170
  RMM-DIIS:  cpu time   31.1403: real time   31.2105
    ORTHCH:  cpu time    4.7903: real time    4.8004
       DOS:  cpu time    0.0020: real time    0.0019
    CHARGE:  cpu time    1.4608: real time    1.4638
    MIXING:  cpu time    0.0110: real time    0.0107
    --------------------------------------------
      LOOP:  cpu time   50.7643: real time   50.8793

 eigenvalue-minimisations  :  5746
 total energy-change (2. order) : 0.3961175E-01  (-0.6553227E-03)
 number of electron     368.0000250 magnetization 
 augmentation part      125.2757348 magnetization 

 DIPCOR: dipole corrections for dipol
 direction  3 min pos   130,
 dipolmoment           0.000000      0.000000     -0.107628 electrons x Angstroem
 Tr[quadrupol]     -6134.099959

 energy correction for charged system         0.000000 eV
 dipol+quadrupol energy correction           -0.000670 eV
 added-field ion interaction         -1.672338 eV  (added to PSCEN)


 Broyden mixing:
  rms(total) = 0.11750E+00    rms(broyden)= 0.11750E+00
  rms(prec ) = 0.16598E+00
  weight for this iteration     100.00

 eigenvalues of (default mixing * dielectric matrix)
  average eigenvalue GAMMA=   5.4388
 18.1553 12.2935  7.8080  4.9001  1.3885  1.3885  0.9400  0.9400  1.1352

 Free energy of the ion-electron system (eV)
  ---------------------------------------------------
  alpha Z        PSCENC =       482.60438266
  Ewald energy   TEWEN  =     18221.12635985
  -Hartree energ DENC   =    -46529.82834942
  -exchange      EXHF   =         0.00000000
  -V(xc)+E(xc)   XCENC  =     -1835.75494850
  PAW double counting   =     33899.70479519   -31003.23776746
  entropy T*S    EENTRO =        -0.01157486
  eigenvalues    EBANDS =      -225.67622465
  atomic energy  EATOM  =     26772.58429871
  Solvation  Ediel_sol  =         0.00000000
  ---------------------------------------------------
  free energy    TOTEN  =      -218.48902846 eV

  energy without entropy =     -218.47745360  energy(sigma->0) =     -218.48324103


--------------------------------------------------------------------------------------------------------




--------------------------------------- Iteration      1(  17)  ---------------------------------------


    POTLOK:  cpu time    0.2530: real time    0.2540
    SETDIJ:  cpu time    0.0270: real time    0.0275
    EDDIAG:  cpu time   13.0770: real time   13.1062
  RMM-DIIS:  cpu time   31.0393: real time   31.1081
    ORTHCH:  cpu time    4.7983: real time    4.8086
       DOS:  cpu time    0.0020: real time    0.0019
    CHARGE:  cpu time    1.4618: real time    1.4651
    MIXING:  cpu time    0.0110: real time    0.0111
    --------------------------------------------
      LOOP:  cpu time   50.6693: real time   50.7825

 eigenvalue-minimisations  :  5712
 total energy-change (2. order) : 0.3980941E-01  (-0.3338410E-02)
 number of electron     368.0000250 magnetization 
 augmentation part      125.2735291 magnetization 

 DIPCOR: dipole corrections for dipol
 direction  3 min pos   130,
 dipolmoment           0.000000      0.000000     -0.061783 electrons x Angstroem
 Tr[quadrupol]     -6135.037238

 energy correction for charged system         0.000000 eV
 dipol+quadrupol energy correction           -0.000221 eV
 added-field ion interaction         -0.959988 eV  (added to PSCEN)


 Broyden mixing:
  rms(total) = 0.60375E-01    rms(broyden)= 0.60370E-01
  rms(prec ) = 0.88494E-01
  weight for this iteration     100.00

 eigenvalues of (default mixing * dielectric matrix)
  average eigenvalue GAMMA=   5.0962
 19.5830  9.3399  7.6309  5.6183  3.0475  1.4185  1.4185  0.9010  1.0021  1.0021

 Free energy of the ion-electron system (eV)
  ---------------------------------------------------
  alpha Z        PSCENC =       483.31718123
  Ewald energy   TEWEN  =     18221.12635985
  -Hartree energ DENC   =    -46542.27645397
  -exchange      EXHF   =         0.00000000
  -V(xc)+E(xc)   XCENC  =     -1835.41238775
  PAW double counting   =     33813.80277064   -30918.16006541
  entropy T*S    EENTRO =        -0.01270415
  eigenvalues    EBANDS =      -213.41821821
  atomic energy  EATOM  =     26772.58429871
  Solvation  Ediel_sol  =         0.00000000
  ---------------------------------------------------
  free energy    TOTEN  =      -218.44921904 eV

  energy without entropy =     -218.43651489  energy(sigma->0) =     -218.44286697


--------------------------------------------------------------------------------------------------------




--------------------------------------- Iteration      1(  18)  ---------------------------------------


    POTLOK:  cpu time    0.2500: real time    0.2530
    SETDIJ:  cpu time    0.0270: real time    0.0274
    EDDIAG:  cpu time   13.0740: real time   13.1025
  RMM-DIIS:  cpu time   31.0903: real time   31.1616
    ORTHCH:  cpu time    5.0842: real time    5.0946
       DOS:  cpu time    0.0020: real time    0.0019
    CHARGE:  cpu time    1.4688: real time    1.4714
    MIXING:  cpu time    0.0120: real time    0.0124
    --------------------------------------------
      LOOP:  cpu time   51.0082: real time   51.1247

 eigenvalue-minimisations  :  5712
 total energy-change (2. order) :-0.2458606E-01  (-0.4465855E-03)
 number of electron     368.0000250 magnetization 
 augmentation part      125.2321683 magnetization 

 DIPCOR: dipole corrections for dipol
 direction  3 min pos   126,
 dipolmoment           0.000000      0.000000      0.074900 electrons x Angstroem
 Tr[quadrupol]     -6135.155513

 energy correction for charged system         0.000000 eV
 dipol+quadrupol energy correction           -0.000324 eV
 added-field ion interaction          0.004925 eV  (added to PSCEN)


 Broyden mixing:
  rms(total) = 0.81604E-01    rms(broyden)= 0.81601E-01
  rms(prec ) = 0.17474E+00
  weight for this iteration     100.00

 eigenvalues of (default mixing * dielectric matrix)
  average eigenvalue GAMMA=   5.4240
 20.6859 12.2057  9.8062  6.2415  3.8923  1.5080  1.5080  1.0049  1.0049  0.9032
  0.9032

 Free energy of the ion-electron system (eV)
  ---------------------------------------------------
  alpha Z        PSCENC =       484.28199078
  Ewald energy   TEWEN  =     18221.12635985
  -Hartree energ DENC   =    -46546.28283087
  -exchange      EXHF   =         0.00000000
  -V(xc)+E(xc)   XCENC  =     -1835.38014536
  PAW double counting   =     33943.29012474   -31048.21104217
  entropy T*S    EENTRO =        -0.00988549
  eigenvalues    EBANDS =      -209.87267529
  atomic energy  EATOM  =     26772.58429871
  Solvation  Ediel_sol  =         0.00000000
  ---------------------------------------------------
  free energy    TOTEN  =      -218.47380510 eV

  energy without entropy =     -218.46391961  energy(sigma->0) =     -218.46886235


--------------------------------------------------------------------------------------------------------




--------------------------------------- Iteration      1(  19)  ---------------------------------------


    POTLOK:  cpu time    0.2440: real time    0.2447
    SETDIJ:  cpu time    0.0280: real time    0.0276
    EDDIAG:  cpu time   13.0780: real time   13.1077
  RMM-DIIS:  cpu time   31.1123: real time   31.1881
    ORTHCH:  cpu time    5.0962: real time    5.1084
       DOS:  cpu time    0.0010: real time    0.0019
    CHARGE:  cpu time    1.4708: real time    1.4739
    MIXING:  cpu time    0.0120: real time    0.0129
    --------------------------------------------
      LOOP:  cpu time   51.0422: real time   51.1652

 eigenvalue-minimisations  :  5712
 total energy-change (2. order) : 0.2211441E-01  (-0.6971919E-03)
 number of electron     368.0000250 magnetization 
 augmentation part      125.2030784 magnetization 

 DIPCOR: dipole corrections for dipol
 direction  3 min pos   124,
 dipolmoment           0.000000      0.000000      0.079674 electrons x Angstroem
 Tr[quadrupol]     -6135.817861

 energy correction for charged system         0.000000 eV
 dipol+quadrupol energy correction           -0.000367 eV
 added-field ion interaction         -0.611138 eV  (added to PSCEN)


 Broyden mixing:
  rms(total) = 0.56259E-01    rms(broyden)= 0.56258E-01
  rms(prec ) = 0.10962E+00
  weight for this iteration     100.00

 eigenvalues of (default mixing * dielectric matrix)
  average eigenvalue GAMMA=   5.0954
 20.8236 12.2749  9.6859  6.0891  3.9019  1.5816  1.5816  1.3764  1.0050  1.0050
  0.9100  0.9100

 Free energy of the ion-electron system (eV)
  ---------------------------------------------------
  alpha Z        PSCENC =       483.66588504
  Ewald energy   TEWEN  =     18221.12635985
  -Hartree energ DENC   =    -46555.52102591
  -exchange      EXHF   =         0.00000000
  -V(xc)+E(xc)   XCENC  =     -1835.33705699
  PAW double counting   =     33839.84694834   -30945.39488390
  entropy T*S    EENTRO =        -0.01183051
  eigenvalues    EBANDS =      -199.41038533
  atomic energy  EATOM  =     26772.58429871
  Solvation  Ediel_sol  =         0.00000000
  ---------------------------------------------------
  free energy    TOTEN  =      -218.45169069 eV

  energy without entropy =     -218.43986018  energy(sigma->0) =     -218.44577544


--------------------------------------------------------------------------------------------------------




--------------------------------------- Iteration      1(  20)  ---------------------------------------


    POTLOK:  cpu time    0.2450: real time    0.2473
    SETDIJ:  cpu time    0.0270: real time    0.0277
    EDDIAG:  cpu time   13.0620: real time   13.0953
  RMM-DIIS:  cpu time   31.1013: real time   31.1900
    ORTHCH:  cpu time    5.0822: real time    5.0957
       DOS:  cpu time    0.0020: real time    0.0018
    CHARGE:  cpu time    1.4668: real time    1.4703
    MIXING:  cpu time    0.0140: real time    0.0140
    --------------------------------------------
      LOOP:  cpu time   51.0002: real time   51.1421

 eigenvalue-minimisations  :  5712
 total energy-change (2. order) : 0.3997414E-02  (-0.4772954E-04)
 number of electron     368.0000250 magnetization 
 augmentation part      125.2112117 magnetization 

 DIPCOR: dipole corrections for dipol
 direction  3 min pos   123,
 dipolmoment           0.000000      0.000000      0.080990 electrons x Angstroem
 Tr[quadrupol]     -6136.009878

 energy correction for charged system         0.000000 eV
 dipol+quadrupol energy correction           -0.000379 eV
 added-field ion interaction         -0.934511 eV  (added to PSCEN)


 Broyden mixing:
  rms(total) = 0.50999E-01    rms(broyden)= 0.50998E-01
  rms(prec ) = 0.91618E-01
  weight for this iteration     100.00

 eigenvalues of (default mixing * dielectric matrix)
  average eigenvalue GAMMA=   5.4767
 20.9586 15.1359  9.7647  8.0258  5.4641  3.9172  1.5052  1.5052  0.9117  0.9117
  1.0607  1.0178  1.0178

 Free energy of the ion-electron system (eV)
  ---------------------------------------------------
  alpha Z        PSCENC =       483.34250030
  Ewald energy   TEWEN  =     18221.12635985
  -Hartree energ DENC   =    -46557.43528299
  -exchange      EXHF   =         0.00000000
  -V(xc)+E(xc)   XCENC  =     -1835.32871479
  PAW double counting   =     33835.52429201   -30941.09716249
  entropy T*S    EENTRO =        -0.01226141
  eigenvalues    EBANDS =      -197.15172249
  atomic energy  EATOM  =     26772.58429871
  Solvation  Ediel_sol  =         0.00000000
  ---------------------------------------------------
  free energy    TOTEN  =      -218.44769328 eV

  energy without entropy =     -218.43543187  energy(sigma->0) =     -218.44156258


--------------------------------------------------------------------------------------------------------




--------------------------------------- Iteration      1(  21)  ---------------------------------------


    POTLOK:  cpu time    0.2500: real time    0.2512
    SETDIJ:  cpu time    0.0280: real time    0.0276
    EDDIAG:  cpu time   13.0140: real time   13.1034
  RMM-DIIS:  cpu time   30.7953: real time   31.1857
    ORTHCH:  cpu time    5.0252: real time    5.0823
       DOS:  cpu time    0.0020: real time    0.0018
    CHARGE:  cpu time    1.4378: real time    1.4611
    MIXING:  cpu time    0.0140: real time    0.0139
    --------------------------------------------
      LOOP:  cpu time   50.5663: real time   51.1272

 eigenvalue-minimisations  :  5712
 total energy-change (2. order) :-0.1998023E+00  (-0.3806823E-02)
 number of electron     368.0000250 magnetization 
 augmentation part      125.1889321 magnetization 

 DIPCOR: dipole corrections for dipol
 direction  3 min pos   126,
 dipolmoment           0.000000      0.000000     -0.202668 electrons x Angstroem
 Tr[quadrupol]     -6137.007732

 energy correction for charged system         0.000000 eV
 dipol+quadrupol energy correction           -0.002375 eV
 added-field ion interaction         -0.013326 eV  (added to PSCEN)


 Broyden mixing:
  rms(total) = 0.16899E+00    rms(broyden)= 0.16898E+00
  rms(prec ) = 0.42035E+00
  weight for this iteration     100.00

 eigenvalues of (default mixing * dielectric matrix)
  average eigenvalue GAMMA=   5.1605
 21.1564 15.6593  9.6800  7.8517  5.5878  3.6991  1.5163  1.5163  1.1971  1.0163
  1.0163  0.9197  0.9197  0.5111

 Free energy of the ion-electron system (eV)
  ---------------------------------------------------
  alpha Z        PSCENC =       484.26168841
  Ewald energy   TEWEN  =     18221.12635985
  -Hartree energ DENC   =    -46570.66097422
  -exchange      EXHF   =         0.00000000
  -V(xc)+E(xc)   XCENC  =     -1835.30828149
  PAW double counting   =     33877.80445895   -30983.57258841
  entropy T*S    EENTRO =        -0.00245109
  eigenvalues    EBANDS =      -184.88000625
  atomic energy  EATOM  =     26772.58429871
  Solvation  Ediel_sol  =         0.00000000
  ---------------------------------------------------
  free energy    TOTEN  =      -218.64749553 eV

  energy without entropy =     -218.64504444  energy(sigma->0) =     -218.64626999


--------------------------------------------------------------------------------------------------------




--------------------------------------- Iteration      1(  22)  ---------------------------------------


    POTLOK:  cpu time    0.2440: real time    0.2476
    SETDIJ:  cpu time    0.0270: real time    0.0274
    EDDIAG:  cpu time   12.9450: real time   13.0971
  RMM-DIIS:  cpu time   30.8753: real time   31.2739
    ORTHCH:  cpu time    5.0352: real time    5.0911
       DOS:  cpu time    0.0020: real time    0.0019
    CHARGE:  cpu time    1.4538: real time    1.4680
    MIXING:  cpu time    0.0150: real time    0.0148
    --------------------------------------------
      LOOP:  cpu time   50.5973: real time   51.2218

 eigenvalue-minimisations  :  5712
 total energy-change (2. order) : 0.6188968E-01  (-0.1099932E-03)
 number of electron     368.0000250 magnetization 
 augmentation part      125.2130526 magnetization 

 DIPCOR: dipole corrections for dipol
 direction  3 min pos   125,
 dipolmoment           0.000000      0.000000     -0.161373 electrons x Angstroem
 Tr[quadrupol]     -6137.143428

 energy correction for charged system         0.000000 eV
 dipol+quadrupol energy correction           -0.001506 eV
 added-field ion interaction          0.613596 eV  (added to PSCEN)


 Broyden mixing:
  rms(total) = 0.14341E+00    rms(broyden)= 0.14341E+00
  rms(prec ) = 0.35678E+00
  weight for this iteration     100.00

 eigenvalues of (default mixing * dielectric matrix)
  average eigenvalue GAMMA=   5.5005
 22.1991 19.5924  9.1680  9.1680  5.9055  3.8171  3.8171  1.5077  1.5077  1.0350
  1.0350  0.9978  0.9978  0.8798  0.8798

 Free energy of the ion-electron system (eV)
  ---------------------------------------------------
  alpha Z        PSCENC =       484.88948053
[...]
  RMM-DIIS:  cpu time   35.6166: real time   35.7176
    ORTHCH:  cpu time    4.7783: real time    4.7915
       DOS:  cpu time    0.0020: real time    0.0018
    CHARGE:  cpu time    1.4588: real time    1.4623
    MIXING:  cpu time    0.0070: real time    0.0074
    --------------------------------------------
      LOOP:  cpu time   55.1936: real time   55.3491

 eigenvalue-minimisations  :  6598
 total energy-change (2. order) :-0.1497368E-04  (-0.1713381E-04)
 number of electron     368.0000093 magnetization 
 augmentation part      125.1283334 magnetization 

 DIPCOR: dipole corrections for dipol
 direction  3 min pos   126,
 dipolmoment           0.000000      0.000000     -0.023173 electrons x Angstroem
 Tr[quadrupol]     -6124.461116

 energy correction for charged system         0.000000 eV
 dipol+quadrupol energy correction           -0.000031 eV
 added-field ion interaction         -0.019821 eV  (added to PSCEN)


 eigenvalues of (default mixing * dielectric matrix)
  average eigenvalue GAMMA=   1.9431
  1.6092  2.2770

  free energy =  -0.218733561963E+03  energy without entropy=  -0.218722785922E+03


--------------------------------------------------------------------------------------------------------




--------------------------------------- Iteration     37(   4)  ---------------------------------------


    POTLOK:  cpu time    0.2530: real time    0.2562
    SETDIJ:  cpu time    0.0280: real time    0.0278
    EDDIAG:  cpu time   13.0610: real time   13.0973
  RMM-DIIS:  cpu time   17.7993: real time   17.8499
    ORTHCH:  cpu time    4.7673: real time    4.7796
       DOS:  cpu time    0.0020: real time    0.0019
    CHARGE:  cpu time    1.4808: real time    1.4857
    MIXING:  cpu time    0.0080: real time    0.0076
    --------------------------------------------
      LOOP:  cpu time   37.3993: real time   37.5061

 eigenvalue-minimisations  :  3259
 total energy-change (2. order) : 0.5735830E-05  (-0.2886684E-06)
 number of electron     368.0000093 magnetization 
 augmentation part      125.1284698 magnetization 

 DIPCOR: dipole corrections for dipol
 direction  3 min pos   126,
 dipolmoment           0.000000      0.000000     -0.023128 electrons x Angstroem
 Tr[quadrupol]     -6124.461514

 energy correction for charged system         0.000000 eV
 dipol+quadrupol energy correction           -0.000031 eV
 added-field ion interaction         -0.019783 eV  (added to PSCEN)


 eigenvalues of (default mixing * dielectric matrix)
  average eigenvalue GAMMA=   5.0301
 12.6758  0.9528  1.4618

  free energy =  -0.218733556227E+03  energy without entropy=  -0.218722777731E+03


--------------------------------------------------------------------------------------------------------




--------------------------------------- Iteration     37(   5)  ---------------------------------------


    POTLOK:  cpu time    0.2480: real time    0.2483
    SETDIJ:  cpu time    0.0270: real time    0.0275
    EDDIAG:  cpu time   13.0570: real time   13.0935
  RMM-DIIS:  cpu time   22.4836: real time   22.5472
    ORTHCH:  cpu time    4.7733: real time    4.7864
       DOS:  cpu time    0.0020: real time    0.0019
    CHARGE:  cpu time    1.4588: real time    1.4633
    MIXING:  cpu time    0.0090: real time    0.0082
    --------------------------------------------
      LOOP:  cpu time   42.0586: real time   42.1763

 eigenvalue-minimisations  :  4169
 total energy-change (2. order) : 0.1161233E-04  (-0.1077538E-05)
 number of electron     368.0000093 magnetization 
 augmentation part      125.1289059 magnetization 

 DIPCOR: dipole corrections for dipol
 direction  3 min pos   126,
 dipolmoment           0.000000      0.000000     -0.023026 electrons x Angstroem
 Tr[quadrupol]     -6124.462801

 energy correction for charged system         0.000000 eV
 dipol+quadrupol energy correction           -0.000031 eV
 added-field ion interaction         -0.019696 eV  (added to PSCEN)


 eigenvalues of (default mixing * dielectric matrix)
  average eigenvalue GAMMA=   5.0391
 14.2381  3.4449  1.0009  1.4724

  free energy =  -0.218733544615E+03  energy without entropy=  -0.218722759034E+03


--------------------------------------------------------------------------------------------------------




--------------------------------------- Iteration     37(   6)  ---------------------------------------


    POTLOK:  cpu time    0.2540: real time    0.2571
    SETDIJ:  cpu time    0.0270: real time    0.0276
    EDDIAG:  cpu time   13.0410: real time   13.0770
  RMM-DIIS:  cpu time   16.9904: real time   17.0385
    ORTHCH:  cpu time    4.7753: real time    4.7874
       DOS:  cpu time    0.0020: real time    0.0018
    --------------------------------------------
      LOOP:  cpu time   35.0897: real time   35.1895

 eigenvalue-minimisations  :  3150
 total energy-change (2. order) : 0.8030947E-06  (-0.2203271E-06)
 number of electron     368.0000093 magnetization 
 augmentation part      125.1289059 magnetization 

 DIPCOR: dipole corrections for dipol
 direction  3 min pos   126,
 dipolmoment           0.000000      0.000000     -0.023114 electrons x Angstroem
 Tr[quadrupol]     -6124.462764

 energy correction for charged system         0.000000 eV
 dipol+quadrupol energy correction           -0.000031 eV
 added-field ion interaction         -0.019771 eV  (added to PSCEN)


  free energy =  -0.218733543812E+03  energy without entropy=  -0.218722761401E+03


--------------------------------------------------------------------------------------------------------




------------------------ aborting loop because EDIFF is reached ----------------------------------------


    CHARGE:  cpu time    1.4588: real time    1.4632
    FORLOC:  cpu time    0.0620: real time    0.0622
    FORNL :  cpu time   10.9493: real time   10.9782
    STRESS:  cpu time   32.6390: real time   32.7264
    FORCOR:  cpu time    0.2890: real time    0.2896
    FORHAR:  cpu time    0.1110: real time    0.1114
    MIXING:  cpu time    0.0080: real time    0.0085
    OFIELD:  cpu time    0.0000: real time    0.0001

  FORCE on cell =-STRESS in cart. coord.  units (eV):
  Direction    XX          YY          ZZ          XY          YZ          ZX
  --------------------------------------------------------------------------------------
  Alpha Z   484.27739   484.27739   484.27739
  Ewald   35229.88294 35450.45825-51625.45211    -0.79789  -118.92976    -2.58209
  Hartree 43064.26216 43304.99986-38938.26422    -0.69297  -109.08294    -1.31555
  E(xc)   -1886.30963 -1883.32383 -1888.68053     0.00500    -0.95364     0.00042
  Local  -84057.01673-84525.16246 84787.73503     1.47491   219.30176     3.78624
  n-local   258.06615   239.76370   220.52911     0.01537     3.89818    -0.06398
  augment  2252.89837  2261.70906  2275.59058    -0.00075     1.70136     0.04962
  Kinetic  4628.21923  4645.54362  4680.81121     0.00634     6.17116     0.05931
  Fock        0.00000     0.00000     0.00000     0.00000     0.00000     0.00000
  -------------------------------------------------------------------------------------
  Total     -25.72012   -21.73441    -3.45354     0.01001     2.10612    -0.06603
  in kB     -26.21290   -22.15082    -3.51971     0.01020     2.14647    -0.06730
  external pressure =      -17.29 kB  Pullay stress =        0.00 kB



--------------------------------------------------------------------------------------------------------



  FREE ENERGIE OF THE ION-ELECTRON SYSTEM (eV)
  ---------------------------------------------------
  free  energy   TOTEN  =      -218.73354381 eV

  energy  without entropy=     -218.72276140  energy(sigma->0) =     -218.72815261
 
 d Force = 0.6672664E-03[ 0.596E-03, 0.738E-03]  d Energy = 0.6439738E-03 0.233E-04
 d Force =-0.5356729E+01[-0.536E+01,-0.536E+01]  d Ewald  =-0.5356726E+01-0.302E-05


--------------------------------------------------------------------------------------------------------


    POTLOK:  cpu time    0.2750: real time    0.2749


--------------------------------------------------------------------------------------------------------


 Quasi-Newton relaxation of ions (Broydens 2nd method)
  g(Force)  = 0.173E-03   g(Stress)= 0.000E+00

 retain information from N=  2 steps
 eigenvalues of (default step * inverse Hessian matrix)
  average eigenvalue of G=  30.2128
 eigenvalue spectrum of G is 30.2128 30.2128


--------------------------------------------------------------------------------------------------------


    WAVPRE:  cpu time    0.0790: real time    0.0962
    FEWALD:  cpu time    0.0020: real time    0.0020
    ORTHCH:  cpu time    8.3907: real time    8.4128
     LOOP+:  cpu time  354.8791: real time  355.9046


--------------------------------------- Iteration     38(   1)  ---------------------------------------


    POTLOK:  cpu time    0.2480: real time    0.2507
    SETDIJ:  cpu time    0.0280: real time    0.0280
     EDDAV:  cpu time   78.5111: real time   78.7223
       DOS:  cpu time    0.0020: real time    0.0019
    CHARGE:  cpu time    1.4658: real time    1.4707
    MIXING:  cpu time    0.0070: real time    0.0069
    --------------------------------------------
      LOOP:  cpu time   80.2618: real time   80.4805

 eigenvalue-minimisations  :  5880
 total energy-change (2. order) :-0.2560948E-03  (-0.2685625E-02)
 number of electron     368.0000093 magnetization 
 augmentation part      125.1293558 magnetization 

 DIPCOR: dipole corrections for dipol
 direction  3 min pos   126,
 dipolmoment           0.000000      0.000000     -0.023097 electrons x Angstroem
 Tr[quadrupol]     -6124.485945

 energy correction for charged system         0.000000 eV
 dipol+quadrupol energy correction           -0.000031 eV
 added-field ion interaction         -0.019721 eV  (added to PSCEN)


  free energy =  -0.218733800710E+03  energy without entropy=  -0.218722991480E+03


--------------------------------------------------------------------------------------------------------




--------------------------------------- Iteration     38(   2)  ---------------------------------------


    POTLOK:  cpu time    0.2470: real time    0.2499
    SETDIJ:  cpu time    0.0280: real time    0.0280
    EDDIAG:  cpu time   13.0650: real time   13.1007
  RMM-DIIS:  cpu time   30.6833: real time   30.7705
    ORTHCH:  cpu time    4.7703: real time    4.7824
       DOS:  cpu time    0.0020: real time    0.0019
    CHARGE:  cpu time    1.4828: real time    1.4874
    MIXING:  cpu time    0.0070: real time    0.0073
    --------------------------------------------
      LOOP:  cpu time   50.2854: real time   50.4281

 eigenvalue-minimisations  :  5711
 total energy-change (2. order) :-0.3382107E-04  (-0.3459495E-04)
 number of electron     368.0000093 magnetization 
 augmentation part      125.1292496 magnetization 

 DIPCOR: dipole corrections for dipol
 direction  3 min pos   126,
 dipolmoment           0.000000      0.000000     -0.023023 electrons x Angstroem
 Tr[quadrupol]     -6124.485868

 energy correction for charged system         0.000000 eV
 dipol+quadrupol energy correction           -0.000031 eV
 added-field ion interaction         -0.019658 eV  (added to PSCEN)


 eigenvalues of (default mixing * dielectric matrix)
  average eigenvalue GAMMA=   1.2839
  1.2839

  free energy =  -0.218733834531E+03  energy without entropy=  -0.218723026559E+03


--------------------------------------------------------------------------------------------------------




--------------------------------------- Iteration     38(   3)  ---------------------------------------


    POTLOK:  cpu time    0.2480: real time    0.2483
    SETDIJ:  cpu time    0.0270: real time    0.0273
    EDDIAG:  cpu time   13.0600: real time   13.0959
  RMM-DIIS:  cpu time   17.5643: real time   17.6137
    ORTHCH:  cpu time    4.7693: real time    4.7820
       DOS:  cpu time    0.0020: real time    0.0019
    CHARGE:  cpu time    1.4758: real time    1.4796
    MIXING:  cpu time    0.0070: real time    0.0074
    --------------------------------------------
      LOOP:  cpu time   37.1534: real time   37.2562

 eigenvalue-minimisations  :  3298
 total energy-change (2. order) :-0.1450844E-05  (-0.1774467E-05)
 number of electron     368.0000093 magnetization 
 augmentation part      125.1291831 magnetization 

 DIPCOR: dipole corrections for dipol
 direction  3 min pos   126,
 dipolmoment           0.000000      0.000000     -0.022981 electrons x Angstroem
 Tr[quadrupol]     -6124.485823

 energy correction for charged system         0.000000 eV
 dipol+quadrupol energy correction           -0.000031 eV
 added-field ion interaction         -0.019621 eV  (added to PSCEN)


 eigenvalues of (default mixing * dielectric matrix)
  average eigenvalue GAMMA=   3.5439
  1.2149  5.8729

  free energy =  -0.218733835982E+03  energy without entropy=  -0.218723028618E+03


--------------------------------------------------------------------------------------------------------




--------------------------------------- Iteration     38(   4)  ---------------------------------------


    POTLOK:  cpu time    0.2470: real time    0.2501
    SETDIJ:  cpu time    0.0280: real time    0.0280
    EDDIAG:  cpu time   13.0480: real time   13.0841
  RMM-DIIS:  cpu time   16.6485: real time   16.6958
    ORTHCH:  cpu time    4.7683: real time    4.7801
       DOS:  cpu time    0.0010: real time    0.0019
    CHARGE:  cpu time    1.4588: real time    1.4621
    MIXING:  cpu time    0.0080: real time    0.0081
    --------------------------------------------
      LOOP:  cpu time   36.2075: real time   36.3101

 eigenvalue-minimisations  :  3046
 total energy-change (2. order) : 0.8664065E-06  (-0.3834944E-06)
 number of electron     368.0000093 magnetization 
 augmentation part      125.1290464 magnetization 

 DIPCOR: dipole corrections for dipol
 direction  3 min pos   126,
 dipolmoment           0.000000      0.000000     -0.022905 electrons x Angstroem
 Tr[quadrupol]     -6124.485643

 energy correction for charged system         0.000000 eV
 dipol+quadrupol energy correction           -0.000030 eV
 added-field ion interaction         -0.019557 eV  (added to PSCEN)


 eigenvalues of (default mixing * dielectric matrix)
  average eigenvalue GAMMA=   4.2997
 10.5449  0.9861  1.3682

  free energy =  -0.218733835115E+03  energy without entropy=  -0.218723029470E+03


--------------------------------------------------------------------------------------------------------




--------------------------------------- Iteration     38(   5)  ---------------------------------------


    POTLOK:  cpu time    0.2470: real time    0.2482
    SETDIJ:  cpu time    0.0280: real time    0.0280
    EDDIAG:  cpu time   13.0480: real time   13.0843
  RMM-DIIS:  cpu time   17.1604: real time   17.2091
    ORTHCH:  cpu time    4.7733: real time    4.7853
       DOS:  cpu time    0.0020: real time    0.0019
    --------------------------------------------
      LOOP:  cpu time   35.2586: real time   35.3568

 eigenvalue-minimisations  :  3126
 total energy-change (2. order) : 0.8226380E-06  (-0.1192323E-06)
 number of electron     368.0000093 magnetization 
 augmentation part      125.1290464 magnetization 

 DIPCOR: dipole corrections for dipol
 direction  3 min pos   126,
 dipolmoment           0.000000      0.000000     -0.022896 electrons x Angstroem
 Tr[quadrupol]     -6124.485514

 energy correction for charged system         0.000000 eV
 dipol+quadrupol energy correction           -0.000030 eV
 added-field ion interaction         -0.019549 eV  (added to PSCEN)


  free energy =  -0.218733834293E+03  energy without entropy=  -0.218723029807E+03


--------------------------------------------------------------------------------------------------------




------------------------ aborting loop because EDIFF is reached ----------------------------------------


    CHARGE:  cpu time    1.4648: real time    1.4688
    FORLOC:  cpu time    0.0620: real time    0.0626
    FORNL :  cpu time   10.9223: real time   10.9526
    STRESS:  cpu time   32.8210: real time   32.9126
    FORCOR:  cpu time    0.2880: real time    0.2887
    FORHAR:  cpu time    0.1110: real time    0.1114
    MIXING:  cpu time    0.0080: real time    0.0080
    OFIELD:  cpu time    0.0000: real time    0.0001

  FORCE on cell =-STRESS in cart. coord.  units (eV):
  Direction    XX          YY          ZZ          XY          YZ          ZX
  --------------------------------------------------------------------------------------
  Alpha Z   484.27739   484.27739   484.27739
  Ewald   35226.73381 35447.60263-51622.14054    -0.63943  -119.04526    -2.47269
  Hartree 43061.33209 43302.32248-38935.28043    -0.52977  -109.10662    -1.25401
  E(xc)   -1886.30906 -1883.32047 -1888.67325     0.00515    -0.95232     0.00096
  Local  -84050.91891-84519.62421 84781.44410     1.14794   219.42639     3.61871
  n-local   258.06399   239.74690   220.50456     0.01269     3.88930    -0.07322
  augment  2252.88918  2261.70604  2275.59329     0.00172     1.70530     0.04853
  Kinetic  4628.20078  4645.54151  4680.81143     0.00976     6.17782     0.05749
  Fock        0.00000     0.00000     0.00000     0.00000     0.00000     0.00000
  -------------------------------------------------------------------------------------
  Total     -25.73072   -21.74773    -3.46345     0.00806     2.09459    -0.07423
  in kB     -26.22370   -22.16439    -3.52980     0.00822     2.13472    -0.07565
  external pressure =      -17.31 kB  Pullay stress =        0.00 kB



--------------------------------------------------------------------------------------------------------



  FREE ENERGIE OF THE ION-ELECTRON SYSTEM (eV)
  ---------------------------------------------------
  free  energy   TOTEN  =      -218.73383429 eV

  energy  without entropy=     -218.72302981  energy(sigma->0) =     -218.72843205
 
 d Force = 0.2797331E-03[ 0.260E-03, 0.299E-03]  d Energy = 0.2904808E-03-0.107E-04
 d Force = 0.2693184E+01[ 0.269E+01, 0.269E+01]  d Ewald  = 0.2693184E+01-0.131E-07


--------------------------------------------------------------------------------------------------------


    POTLOK:  cpu time    0.2750: real time    0.2759


--------------------------------------------------------------------------------------------------------


 Quasi-Newton relaxation of ions (Broydens 2nd method)
  g(Force)  = 0.141E-03   g(Stress)= 0.000E+00

 retain information from N=  2 steps
 eigenvalues of (default step * inverse Hessian matrix)
  average eigenvalue of G=  11.9180
 eigenvalue spectrum of G is 18.4075  5.4286


--------------------------------------------------------------------------------------------------------


  
 reached required accuracy - stopping structural energy minimisation
     LOOP+:  cpu time  285.1926: real time  285.9982
    4ORBIT:  cpu time    0.0000: real time    0.0000

 total amount of memory used by VASP MPI-rank0   209464. kBytes
=======================================================================

   base      :      30000. kBytes
   nonlr-proj:      18706. kBytes
   fftplans  :       6916. kBytes
   grid      :      20167. kBytes
   one-center:        746. kBytes
   wavefun   :     132929. kBytes
 
  
  
 General timing and accounting informations for this job:
 ========================================================
  
                  Total CPU time used (sec):    16571.482
                            User time (sec):    16548.679
                          System time (sec):       22.803
                         Elapsed time (sec):    16627.928
  
                   Maximum memory used (kb):      315456.
                   Average memory used (kb):           0.
  
                          Minor page faults:      1168452
                          Major page faults:            0
                 Voluntary context switches:        15732
