<?xml version="1.0" encoding="ISO-8859-1"?>
<modeling>
 <generator>
  <i name="program" type="string">vasp </i>
  <i name="version" type="string">5.4.4.18Apr17-6-g9f103f2a35  </i>
  <i name="subversion" type="string">(build May 11 2017 09:47:33) complex            parallel </i>
  <i name="platform" type="string">tekla2IFC </i>
  <i name="date" type="string">2020 05 18 </i>
  <i name="time" type="string">17:05:28 </i>
 </generator>
 <incar>
  <i type="string" name="SYSTEM">   alloy-surf</i>
  <i type="int" name="ISTART">     0</i>
  <i type="string" name="PREC">normal</i>
  <i type="string" name="ALGO">   Fast</i>
  <i type="int" name="ISPIN">     1</i>
  <i name="AMIX">      0.10000000</i>
  <i name="BMIX">      3.00000000</i>
  <i name="AMIN">      0.01000000</i>
  <i type="int" name="ICHARG">     2</i>
  <i type="int" name="NELM">   100</i>
  <i type="int" name="NELMDL">    -7</i>
  <i type="int" name="NELMIN">     5</i>
  <i type="int" name="IBRION">     1</i>
  <i type="int" name="NFREE">     2</i>
  <i name="EDIFF">      0.00001000</i>
  <i name="EDIFFG">     -0.03000000</i>
  <i type="int" name="NSW">   200</i>
  <i name="ENCUT">    450.00000000</i>
  <i type="int" name="NBANDS">   408</i>
  <i name="POTIM">      0.15000000</i>
  <i type="string" name="LREAL">   Auto</i>
  <i type="int" name="ISMEAR">     0</i>
  <i name="SIGMA">      0.03000000</i>
  <i type="int" name="NWRITE">     0</i>
  <i type="logical" name="LWAVE"> F  </i>
  <i type="logical" name="LCHARG"> F  </i>
  <i type="logical" name="LAECHG"> F  </i>
  <v type="int" name="KPOINT_BSE">    -1     0     0     0</v>
  <i type="int" name="NELM">   100</i>
  <i type="string" name="GGA">  PE</i>
  <i type="logical" name="LDIPOL"> T  </i>
  <i type="int" name="IDIPOL">     3</i>
 </incar>
 <structure name="primitive_cell" >
  <crystal>
   <varray name="basis" >
    <v>      -8.39489857      -5.72509969       0.00000000 </v>
    <v>       0.00000000       0.00000000     -16.35849953 </v>
    <v>      16.78779904       5.72509969       0.00000000 </v>
   </varray>
   <i name="volume">    786.02904108 </i>
   <varray name="rec_basis" >
    <v>       0.11914832      -0.34938048       0.00000000 </v>
    <v>       0.00000000       0.00000000      -0.06113030 </v>
    <v>       0.11914832      -0.17471103       0.00000000 </v>
   </varray>
  </crystal>
  <varray name="positions" >
   <v>       0.27850001       0.00000000       0.38925000 </v>
   <v>      -0.22319999      -0.12957001       0.05195001 </v>
   <v>      -0.35249998       0.00000000      -0.26274998 </v>
   <v>       0.29160005       0.00000000      -0.11834997 </v>
   <v>      -0.09939998      -0.12957001      -0.23495001 </v>
   <v>       0.16920002       0.00000000       0.16915001 </v>
   <v>      -0.06049997      -0.12957001       0.30425003 </v>
   <v>      -0.21040005      -0.12957001      -0.45595002 </v>
   <v>      -0.42210007       0.00000000       0.18834996 </v>
   <v>       0.12969999       0.00000000      -0.37025000 </v>
   <v>       0.27850001      -0.25913000       0.38925000 </v>
   <v>       0.49169999      -0.12957001      -0.25415000 </v>
   <v>       0.42189997      -0.12957001       0.19674998 </v>
   <v>      -0.35249998      -0.25913000      -0.26274998 </v>
   <v>       0.29160005      -0.25913000      -0.11834997 </v>
   <v>       0.16920002      -0.25913000       0.16915001 </v>
   <v>      -0.42210007      -0.25913000       0.18834996 </v>
   <v>       0.12969999      -0.25913000      -0.37025000 </v>
   <v>      -0.22319999      -0.38870001       0.05195001 </v>
   <v>      -0.09939998      -0.38870001      -0.23495001 </v>
   <v>      -0.06049997      -0.38870001       0.30425003 </v>
   <v>      -0.21040005      -0.38870001      -0.45595002 </v>
   <v>       0.49169999      -0.38870001      -0.25415000 </v>
   <v>       0.42189997      -0.38870001       0.19674998 </v>
  </varray>
 </structure>
 <varray name="primitive_index" >
  <v type="int" >        1 </v>
  <v type="int" >       21 </v>
  <v type="int" >       20 </v>
  <v type="int" >       19 </v>
  <v type="int" >       38 </v>
  <v type="int" >       34 </v>
  <v type="int" >       23 </v>
  <v type="int" >       12 </v>
  <v type="int" >        2 </v>
  <v type="int" >       17 </v>
  <v type="int" >        5 </v>
  <v type="int" >        3 </v>
  <v type="int" >       40 </v>
  <v type="int" >       28 </v>
  <v type="int" >       27 </v>
  <v type="int" >       42 </v>
  <v type="int" >        6 </v>
  <v type="int" >       25 </v>
  <v type="int" >       29 </v>
  <v type="int" >       46 </v>
  <v type="int" >       31 </v>
  <v type="int" >       16 </v>
  <v type="int" >        7 </v>
  <v type="int" >       48 </v>
 </varray>
 <kpoints>
  <generation param="Gamma">
   <v type="int" name="divisions">       4        3        1 </v>
   <v name="usershift">      0.00000000       0.00000000       0.00000000 </v>
   <v name="genvec1">      0.25000000       0.00000000       0.00000000 </v>
   <v name="genvec2">      0.00000000       0.33333333       0.00000000 </v>
   <v name="genvec3">      0.00000000       0.00000000       1.00000000 </v>
   <v name="shift">      0.00000000       0.00000000       0.00000000 </v>
  </generation>
  <varray name="kpointlist" >
   <v>       0.00000000       0.00000000       0.00000000 </v>
   <v>       0.25000000       0.00000000       0.00000000 </v>
   <v>       0.50000000       0.00000000       0.00000000 </v>
   <v>       0.00000000       0.33333333       0.00000000 </v>
   <v>       0.25000000       0.33333333       0.00000000 </v>
   <v>       0.50000000       0.33333333       0.00000000 </v>
   <v>      -0.25000000       0.33333333       0.00000000 </v>
  </varray>
  <varray name="weights" >
   <v>       0.08333333 </v>
   <v>       0.16666667 </v>
   <v>       0.08333333 </v>
   <v>       0.16666667 </v>
   <v>       0.16666667 </v>
   <v>       0.16666667 </v>
   <v>       0.16666667 </v>
  </varray>
 </kpoints>
 <parameters>
  <separator name="general" >
   <i type="string" name="SYSTEM">alloy-surf</i>
   <i type="logical" name="LCOMPAT"> F  </i>
  </separator>
  <separator name="electronic" >
   <i type="string" name="PREC">normal</i>
   <i name="ENMAX">    450.00000000</i>
   <i name="ENAUG">    416.23000000</i>
   <i name="EDIFF">      0.00001000</i>
   <i type="int" name="IALGO">    68</i>
   <i type="int" name="IWAVPR">    11</i>
   <i type="int" name="NBANDS">   408</i>
   <i name="NELECT">    368.00000000</i>
   <i type="int" name="TURBO">     0</i>
   <i type="int" name="IRESTART">     0</i>
   <i type="int" name="NREBOOT">     0</i>
   <i type="int" name="NMIN">     0</i>
   <i name="EREF">      0.00000000</i>
   <separator name="electronic smearing" >
    <i type="int" name="ISMEAR">     0</i>
    <i name="SIGMA">      0.03000000</i>
    <i name="KSPACING">      0.50000000</i>
    <i type="logical" name="KGAMMA"> T  </i>
   </separator>
   <separator name="electronic projectors" >
    <i type="logical" name="LREAL"> T  </i>
    <v name="ROPT">     -0.00050000     -0.00050000</v>
    <i type="int" name="LMAXPAW">  -100</i>
    <i type="int" name="LMAXMIX">     2</i>
    <i type="logical" name="NLSPLINE"> F  </i>
   </separator>
   <separator name="electronic startup" >
    <i type="int" name="ISTART">     0</i>
    <i type="int" name="ICHARG">     2</i>
    <i type="int" name="INIWAV">     1</i>
   </separator>
   <separator name="electronic spin" >
    <i type="int" name="ISPIN">     1</i>
    <i type="logical" name="LNONCOLLINEAR"> F  </i>
    <v name="MAGMOM">      1.00000000      1.00000000      1.00000000      1.00000000      1.00000000      1.00000000      1.00000000      1.00000000      1.00000000      1.00000000      1.00000000      1.00000000      1.00000000      1.00000000      1.00000000      1.00000000      1.00000000      1.00000000      1.00000000      1.00000000
      1.00000000      1.00000000      1.00000000      1.00000000      1.00000000      1.00000000      1.00000000      1.00000000      1.00000000      1.00000000      1.00000000      1.00000000      1.00000000      1.00000000      1.00000000      1.00000000      1.00000000      1.00000000      1.00000000      1.00000000
      1.00000000      1.00000000      1.00000000      1.00000000      1.00000000      1.00000000      1.00000000      1.00000000</v>
    <i name="NUPDOWN">     -1.00000000</i>
    <i type="logical" name="LSORBIT"> F  </i>
    <v name="SAXIS">      0.00000000      0.00000000      1.00000000</v>
    <i type="logical" name="LSPIRAL"> F  </i>
    <v name="QSPIRAL">      0.00000000      0.00000000      0.00000000</v>
    <i type="logical" name="LZEROZ"> F  </i>
   </separator>
   <separator name="electronic exchange-correlation" >
    <i type="logical" name="LASPH"> F  </i>
    <i type="logical" name="LMETAGGA"> F  </i>
   </separator>
   <separator name="electronic convergence" >
    <i type="int" name="NELM">   100</i>
    <i type="int" name="NELMDL">    -7</i>
    <i type="int" name="NELMIN">     5</i>
    <i name="ENINI">    450.00000000</i>
    <separator name="electronic convergence detail" >
     <i type="logical" name="LDIAG"> T  </i>
     <i type="logical" name="LSUBROT"> F  </i>
     <i name="WEIMIN">      0.00100000</i>
     <i name="EBREAK">      0.00000001</i>
     <i name="DEPER">      0.30000000</i>
     <i type="int" name="NRMM">     4</i>
     <i name="TIME">      0.40000000</i>
    </separator>
   </separator>
   <separator name="electronic mixer" >
    <i name="AMIX">      0.10000000</i>
    <i name="BMIX">      3.00000000</i>
    <i name="AMIN">      0.01000000</i>
    <i name="AMIX_MAG">      0.40000000</i>
    <i name="BMIX_MAG">      3.00000000</i>
    <separator name="electronic mixer details" >
     <i type="int" name="IMIX">     4</i>
     <i type="logical" name="MIXFIRST"> F  </i>
     <i type="int" name="MAXMIX">   -45</i>
     <i name="WC">    100.00000000</i>
     <i type="int" name="INIMIX">     1</i>
     <i type="int" name="MIXPRE">     1</i>
     <i type="int" name="MREMOVE">     5</i>
    </separator>
   </separator>
   <separator name="electronic dipolcorrection" >
    <i type="logical" name="LDIPOL"> T  </i>
    <i type="logical" name="LMONO"> F  </i>
    <i type="int" name="IDIPOL">     3</i>
    <i name="EPSILON">      1.00000000</i>
    <v name="DIPOL">   -100.00000000   -100.00000000   -100.00000000</v>
    <i name="EFIELD">      0.00000000</i>
   </separator>
  </separator>
  <separator name="grids" >
   <i type="int" name="NGX">    48</i>
   <i type="int" name="NGY">    60</i>
   <i type="int" name="NGZ">    90</i>
   <i type="int" name="NGXF">    96</i>
   <i type="int" name="NGYF">   120</i>
   <i type="int" name="NGZF">   180</i>
   <i type="logical" name="ADDGRID"> F  </i>
  </separator>
  <separator name="ionic" >
   <i type="int" name="NSW">   200</i>
   <i type="int" name="IBRION">     1</i>
   <i type="int" name="MDALGO">     0</i>
   <i type="int" name="ISIF">     2</i>
   <i name="PSTRESS">      0.00000000</i>
   <i name="EDIFFG">     -0.03000000</i>
   <i type="int" name="NFREE">     2</i>
   <i name="POTIM">      0.15000000</i>
   <i name="SMASS">     -3.00000000</i>
   <i name="SCALEE">      1.00000000</i>
  </separator>
  <separator name="ionic md" >
   <i name="TEBEG">      0.00010000</i>
   <i name="TEEND">      0.00010000</i>
   <i type="int" name="NBLOCK">     1</i>
   <i type="int" name="KBLOCK">   200</i>
   <i type="int" name="NPACO">   256</i>
   <i name="APACO">     16.00000000</i>
  </separator>
  <separator name="symmetry" >
   <i type="int" name="ISYM">     2</i>
   <i name="SYMPREC">      0.00001000</i>
  </separator>
  <separator name="dos" >
   <i type="int" name="LORBIT">     0</i>
   <v name="RWIGS">     -1.00000000     -1.00000000</v>
   <i type="int" name="NEDOS">   301</i>
   <i name="EMIN">     10.00000000</i>
   <i name="EMAX">    -10.00000000</i>
   <i name="EFERMI">      0.00000000</i>
  </separator>
  <separator name="writing" >
   <i type="int" name="NWRITE">     0</i>
   <i type="logical" name="LWAVE"> F  </i>
   <i type="logical" name="LDOWNSAMPLE"> F  </i>
   <i type="logical" name="LCHARG"> F  </i>
   <i type="logical" name="LPARD"> F  </i>
   <i type="logical" name="LVTOT"> F  </i>
   <i type="logical" name="LVHAR"> F  </i>
   <i type="logical" name="LELF"> F  </i>
   <i type="logical" name="LOPTICS"> F  </i>
   <v name="STM">      0.00000000      0.00000000      0.00000000      0.00000000      0.00000000      0.00000000      0.00000000</v>
  </separator>
  <separator name="performance" >
   <i type="int" name="NPAR">    12</i>
   <i type="int" name="NSIM">     4</i>
   <i type="int" name="NBLK">    -1</i>
   <i type="logical" name="LPLANE"> T  </i>
   <i type="logical" name="LSCALAPACK"> T  </i>
   <i type="logical" name="LSCAAWARE"> F  </i>
   <i type="logical" name="LSCALU"> F  </i>
   <i type="logical" name="LASYNC"> F  </i>
   <i type="logical" name="LORBITALREAL"> F  </i>
  </separator>
  <separator name="miscellaneous" >
   <i type="int" name="IDIOT">     3</i>
   <i type="int" name="ISPECIAL">     0</i>
   <i type="logical" name="LMUSIC"> F  </i>
   <v name="POMASS">    114.82000000    106.42000000</v>
   <v name="DARWINR">      0.00000000      0.00000000</v>
   <v name="DARWINV">      1.00000000      1.00000000</v>
   <i type="logical" name="LCORR"> T  </i>
  </separator>
  <i type="logical" name="GGA_COMPAT"> T  </i>
  <i type="logical" name="LBERRY"> F  </i>
  <i type="int" name="ICORELEVEL">     0</i>
  <i type="logical" name="LDAU"> F  </i>
  <i type="int" name="I_CONSTRAINED_M">     0</i>
  <separator name="electronic exchange-correlation" >
   <i type="string" name="GGA">PE</i>
   <i type="int" name="VOSKOWN">     0</i>
   <i type="logical" name="LHFCALC"> F  </i>
   <i type="string" name="PRECFOCK"></i>
   <i type="logical" name="LSYMGRAD"> F  </i>
   <i type="logical" name="LHFONE"> F  </i>
   <i type="logical" name="LRHFCALC"> F  </i>
   <i type="logical" name="LTHOMAS"> F  </i>
   <i type="logical" name="LMODELHF"> F  </i>
   <i name="ENCUT4O">     -1.00000000</i>
   <i type="int" name="EXXOEP">     0</i>
   <i type="int" name="FOURORBIT">     0</i>
   <i name="AEXX">      0.00000000</i>
   <i name="HFALPHA">      0.00000000</i>
   <i name="MCALPHA">      0.00000000</i>
   <i name="ALDAX">      1.00000000</i>
   <i name="AGGAX">      1.00000000</i>
   <i name="ALDAC">      1.00000000</i>
   <i name="AGGAC">      1.00000000</i>
   <i type="int" name="NKREDX">     1</i>
   <i type="int" name="NKREDY">     1</i>
   <i type="int" name="NKREDZ">     1</i>
   <i type="logical" name="SHIFTRED"> F  </i>
   <i type="logical" name="ODDONLY"> F  </i>
   <i type="logical" name="EVENONLY"> F  </i>
   <i type="int" name="LMAXFOCK">     0</i>
   <i type="int" name="NMAXFOCKAE">     0</i>
   <i type="logical" name="LFOCKAEDFT"> F  </i>
   <i name="HFSCREEN">      0.00000000</i>
   <i name="HFSCREENC">      0.00000000</i>
   <i type="int" name="NBANDSGWLOW">     0</i>
  </separator>
  <separator name="vdW DFT" >
   <i type="logical" name="LUSE_VDW"> F  </i>
   <i name="Zab_VDW">     -0.84910000</i>
   <i name="PARAM1">      0.12340000</i>
   <i name="PARAM2">      1.00000000</i>
   <i name="PARAM3">      0.00000000</i>
  </separator>
  <separator name="model GW" >
   <i type="int" name="MODEL_GW">     0</i>
   <i name="MODEL_EPS0">     19.65072603</i>
   <i name="MODEL_ALPHA">      1.00000000</i>
  </separator>
  <separator name="linear response parameters" >
   <i type="logical" name="LEPSILON"> F  </i>
   <i type="logical" name="LRPA"> F  </i>
   <i type="logical" name="LNABLA"> F  </i>
   <i type="logical" name="LVEL"> F  </i>
   <i type="int" name="KINTER">     0</i>
   <i name="CSHIFT">      0.10000000</i>
   <i name="OMEGAMAX">     -1.00000000</i>
   <i name="DEG_THRESHOLD">      0.00200000</i>
   <i name="RTIME">     -0.10000000</i>
   <i name="WPLASMAI">      0.00000000</i>
   <v name="DFIELD">      0.00000000      0.00000000      0.00000000</v>
   <v name="WPLASMA">      0.00000000      0.00000000      0.00000000      0.00000000      0.00000000      0.00000000      0.00000000      0.00000000      0.00000000</v>
  </separator>
  <separator name="orbital magnetization" >
   <i type="logical" name="NUCIND"> F  </i>
   <v name="MAGPOS">      0.00000000      0.00000000      0.00000000</v>
   <i type="logical" name="LNICSALL"> T  </i>
   <i type="logical" name="ORBITALMAG"> F  </i>
   <i type="logical" name="LMAGBLOCH"> F  </i>
   <i type="logical" name="LCHIMAG"> F  </i>
   <i type="logical" name="LGAUGE"> T  </i>
   <i type="int" name="MAGATOM">     0</i>
   <v name="MAGDIPOL">      0.00000000      0.00000000      0.00000000</v>
   <v name="AVECCONST">      0.00000000      0.00000000      0.00000000</v>
  </separator>
  <separator name="response functions" >
   <i type="logical" name="LADDER"> F  </i>
   <i type="logical" name="LRPAFORCE"> F  </i>
   <i type="logical" name="LFXC"> F  </i>
   <i type="logical" name="LHARTREE"> T  </i>
   <i type="int" name="IBSE">     0</i>
   <v type="int" name="KPOINT">    -1     0     0     0</v>
   <i type="logical" name="LTCTE"> F  </i>
   <i type="logical" name="LTETE"> F  </i>
   <i type="logical" name="LTRIPLET"> F  </i>
   <i type="logical" name="LFXCEPS"> F  </i>
   <i type="logical" name="LFXHEG"> F  </i>
   <i type="int" name="NATURALO">     2</i>
   <i type="logical" name="L2ORDER"> F  </i>
   <i type="logical" name="LMP2LT"> F  </i>
   <i type="logical" name="LUSEW"> F  </i>
   <i name="ENCUTGW">     -2.00000000</i>
   <i name="ENCUTGWSOFT">     -2.00000000</i>
   <i name="ENCUTLF">     -1.00000000</i>
   <i type="int" name="LMAXMP2">    -1</i>
   <i name="SCISSOR">      0.00000000</i>
   <i type="int" name="NOMEGA">     0</i>
   <i type="int" name="NOMEGAR">     0</i>
   <i type="int" name="NBANDSGW">    -1</i>
   <i type="int" name="NBANDSO">    -1</i>
   <i type="int" name="NBANDSV">    -1</i>
   <i type="int" name="NELM">   100</i>
   <i type="int" name="NELMHF">     1</i>
   <i type="int" name="DIM">     3</i>
   <i type="int" name="ANTIRES">     0</i>
   <i name="OMEGAMAX">    -30.00000000</i>
   <i name="OMEGAMIN">    -30.00000000</i>
   <i name="OMEGATL">   -200.00000000</i>
   <i type="int" name="OMEGAGRID">   140</i>
   <i name="CSHIFT">     -0.10000000</i>
   <i type="logical" name="SELFENERGY"> F  </i>
   <i type="logical" name="LSPECTRAL"> F  </i>
   <i type="logical" name="LSPECTRALGW"> F  </i>
   <i type="logical" name="LSINGLES"> F  </i>
   <i type="logical" name="LFERMIGW"> F  </i>
   <i type="logical" name="ODDONLYGW"> F  </i>
   <i type="logical" name="EVENONLYGW"> F  </i>
   <i type="int" name="NKREDLFX">     1</i>
   <i type="int" name="NKREDLFY">     1</i>
   <i type="int" name="NKREDLFZ">     1</i>
   <i type="int" name="MAXMEM">  2800</i>
   <i type="int" name="TELESCOPE">     0</i>
   <i type="int" name="TAUPAR">     1</i>
   <i type="int" name="OMEGAPAR">    -1</i>
   <i name="LAMBDA">      1.00000000</i>
  </separator>
  <separator name="External order field" >
   <i name="OFIELD_KAPPA">      0.00000000</i>
   <v name="OFIELD_K">      0.00000000      0.00000000      0.00000000</v>
   <i name="OFIELD_Q6_NEAR">      0.00000000</i>
   <i name="OFIELD_Q6_FAR">      0.00000000</i>
   <i name="OFIELD_A">      0.00000000</i>
  </separator>
 </parameters>
 <atominfo>
  <atoms>      48 </atoms>
  <types>       2 </types>
  <array name="atoms" >
   <dimension dim="1">ion</dimension>
   <field type="string">element</field>
   <field type="int">atomtype</field>
   <set>
    <rc><c>In</c><c>   1</c></rc>
    <rc><c>In</c><c>   1</c></rc>
    <rc><c>In</c><c>   1</c></rc>
    <rc><c>In</c><c>   1</c></rc>
    <rc><c>In</c><c>   1</c></rc>
    <rc><c>In</c><c>   1</c></rc>
    <rc><c>In</c><c>   1</c></rc>
    <rc><c>In</c><c>   1</c></rc>
    <rc><c>In</c><c>   1</c></rc>
    <rc><c>In</c><c>   1</c></rc>
    <rc><c>In</c><c>   1</c></rc>
    <rc><c>In</c><c>   1</c></rc>
    <rc><c>In</c><c>   1</c></rc>
    <rc><c>In</c><c>   1</c></rc>
    <rc><c>In</c><c>   1</c></rc>
    <rc><c>In</c><c>   1</c></rc>
    <rc><c>Pd</c><c>   2</c></rc>
    <rc><c>Pd</c><c>   2</c></rc>
    <rc><c>Pd</c><c>   2</c></rc>
    <rc><c>Pd</c><c>   2</c></rc>
    <rc><c>Pd</c><c>   2</c></rc>
    <rc><c>Pd</c><c>   2</c></rc>
    <rc><c>Pd</c><c>   2</c></rc>
    <rc><c>Pd</c><c>   2</c></rc>
    <rc><c>Pd</c><c>   2</c></rc>
    <rc><c>Pd</c><c>   2</c></rc>
    <rc><c>Pd</c><c>   2</c></rc>
    <rc><c>Pd</c><c>   2</c></rc>
    <rc><c>Pd</c><c>   2</c></rc>
    <rc><c>Pd</c><c>   2</c></rc>
    <rc><c>Pd</c><c>   2</c></rc>
    <rc><c>Pd</c><c>   2</c></rc>
    <rc><c>Pd</c><c>   2</c></rc>
    <rc><c>Pd</c><c>   2</c></rc>
    <rc><c>Pd</c><c>   2</c></rc>
    <rc><c>Pd</c><c>   2</c></rc>
    <rc><c>Pd</c><c>   2</c></rc>
    <rc><c>Pd</c><c>   2</c></rc>
    <rc><c>Pd</c><c>   2</c></rc>
    <rc><c>Pd</c><c>   2</c></rc>
    <rc><c>Pd</c><c>   2</c></rc>
    <rc><c>Pd</c><c>   2</c></rc>
    <rc><c>Pd</c><c>   2</c></rc>
    <rc><c>Pd</c><c>   2</c></rc>
    <rc><c>Pd</c><c>   2</c></rc>
    <rc><c>Pd</c><c>   2</c></rc>
    <rc><c>Pd</c><c>   2</c></rc>
    <rc><c>Pd</c><c>   2</c></rc>
   </set>
  </array>
  <array name="atomtypes" >
   <dimension dim="1">type</dimension>
   <field type="int">atomspertype</field>
   <field type="string">element</field>
   <field>mass</field>
   <field>valence</field>
   <field type="string">pseudopotential</field>
   <set>
    <rc><c>  16</c><c>In</c><c>    114.82000000</c><c>      3.00000000</c><c>  PAW_PBE In 08Apr2002                  </c></rc>
    <rc><c>  32</c><c>Pd</c><c>    106.42000000</c><c>     10.00000000</c><c>  PAW_PBE Pd 04Jan2005                  </c></rc>
   </set>
  </array>
 </atominfo>
 <structure name="initialpos" >
  <crystal>
   <varray name="basis" >
    <v>       8.39290047       0.00000000       0.00000000 </v>
    <v>       0.00399620      11.45019938       0.00000000 </v>
    <v>       0.00000000       0.00000000      16.35849953 </v>
   </varray>
   <i name="volume">   1572.05808216 </i>
   <varray name="rec_basis" >
    <v>       0.11914832      -0.00004158       0.00000000 </v>
    <v>       0.00000000       0.08733472       0.00000000 </v>
    <v>       0.00000000       0.00000000       0.06113030 </v>
   </varray>
  </crystal>
  <varray name="positions" >
   <v>       0.50000000       0.05537500       0.00000000 </v>
   <v>       0.79879999       0.30522501       0.00000000 </v>
   <v>       0.00000000       0.12707500       0.12957001 </v>
   <v>       0.29850000       0.37722501       0.12957001 </v>
   <v>       0.50000000       0.05537500       0.25913000 </v>
   <v>       0.79879999       0.30522501       0.25913000 </v>
   <v>       0.00000000       0.12707500       0.38870001 </v>
   <v>       0.29850000       0.37722501       0.38870001 </v>
   <v>       0.50000000       0.55537500       0.00000000 </v>
   <v>       0.79879999       0.80522501       0.00000000 </v>
   <v>       0.00000000       0.62707500       0.12957001 </v>
   <v>       0.29850000       0.87722501       0.12957001 </v>
   <v>       0.50000000       0.55537500       0.25913000 </v>
   <v>       0.79879999       0.80522501       0.25913000 </v>
   <v>       0.00000000       0.62707500       0.38870001 </v>
   <v>       0.29850000       0.87722501       0.38870001 </v>
   <v>       0.12980001       0.25002500       0.00000000 </v>
   <v>       0.16910000       0.49997500       0.00000000 </v>
   <v>       0.47170001       0.29502499       0.00000000 </v>
   <v>       0.82700002       0.04487500       0.00000000 </v>
   <v>       0.32710001       0.13757500       0.12957001 </v>
   <v>       0.62949997       0.43222499       0.12957001 </v>
   <v>       0.66900003       0.18237500       0.12957001 </v>
   <v>       0.97160000       0.38742501       0.12957001 </v>
   <v>       0.12980001       0.25002500       0.25913000 </v>
   <v>       0.16910000       0.49997500       0.25913000 </v>
   <v>       0.47170001       0.29502499       0.25913000 </v>
   <v>       0.82700002       0.04487500       0.25913000 </v>
   <v>       0.32710001       0.13757500       0.38870001 </v>
   <v>       0.62949997       0.43222499       0.38870001 </v>
   <v>       0.66900003       0.18237500       0.38870001 </v>
   <v>       0.97160000       0.38742501       0.38870001 </v>
   <v>       0.12980001       0.75002500       0.00000000 </v>
   <v>       0.16910000       0.99997500       0.00000000 </v>
   <v>       0.47170001       0.79502499       0.00000000 </v>
   <v>       0.82700002       0.54487500       0.00000000 </v>
   <v>       0.32710001       0.63757500       0.12957001 </v>
   <v>       0.62949997       0.93222499       0.12957001 </v>
   <v>       0.66900003       0.68237500       0.12957001 </v>
   <v>       0.97160000       0.88742501       0.12957001 </v>
   <v>       0.12980001       0.75002500       0.25913000 </v>
   <v>       0.16910000       0.99997500       0.25913000 </v>
   <v>       0.47170001       0.79502499       0.25913000 </v>
   <v>       0.82700002       0.54487500       0.25913000 </v>
   <v>       0.32710001       0.63757500       0.38870001 </v>
   <v>       0.62949997       0.93222499       0.38870001 </v>
   <v>       0.66900003       0.68237500       0.38870001 </v>
   <v>       0.97160000       0.88742501       0.38870001 </v>
  </varray>
  <varray name="selective"  type="logical" >
   <v type="logical" >  F  F  F </v>
   <v type="logical" >  F  F  F </v>
   <v type="logical" >  F  F  F </v>
   <v type="logical" >  F  F  F </v>
   <v type="logical" >  T  T  T </v>
   <v type="logical" >  T  T  T </v>
   <v type="logical" >  T  T  T </v>
   <v type="logical" >  T  T  T </v>
   <v type="logical" >  F  F  F </v>
   <v type="logical" >  F  F  F </v>
   <v type="logical" >  F  F  F </v>
   <v type="logical" >  F  F  F </v>
   <v type="logical" >  T  T  T </v>
   <v type="logical" >  T  T  T </v>
   <v type="logical" >  T  T  T </v>
   <v type="logical" >  T  T  T </v>
   <v type="logical" >  F  F  F </v>
   <v type="logical" >  F  F  F </v>
   <v type="logical" >  F  F  F </v>
   <v type="logical" >  F  F  F </v>
   <v type="logical" >  F  F  F </v>
   <v type="logical" >  F  F  F </v>
   <v type="logical" >  F  F  F </v>
   <v type="logical" >  F  F  F </v>
   <v type="logical" >  T  T  T </v>
   <v type="logical" >  T  T  T </v>
   <v type="logical" >  T  T  T </v>
   <v type="logical" >  T  T  T </v>
   <v type="logical" >  T  T  T </v>
   <v type="logical" >  T  T  T </v>
   <v type="logical" >  T  T  T </v>
   <v type="logical" >  T  T  T </v>
   <v type="logical" >  F  F  F </v>
   <v type="logical" >  F  F  F </v>
   <v type="logical" >  F  F  F </v>
   <v type="logical" >  F  F  F </v>
   <v type="logical" >  F  F  F </v>
   <v type="logical" >  F  F  F </v>
   <v type="logical" >  F  F  F </v>
   <v type="logical" >  F  F  F </v>
   <v type="logical" >  T  T  T </v>
   <v type="logical" >  T  T  T </v>
   <v type="logical" >  T  T  T </v>
   <v type="logical" >  T  T  T </v>
   <v type="logical" >  T  T  T </v>
   <v type="logical" >  T  T  T </v>
   <v type="logical" >  T  T  T </v>
   <v type="logical" >  T  T  T </v>
  </varray>
  <nose>
   <v>      -3.00000000       0.00000000       0.00010000       0.00010000 </v>
  </nose>
 </structure>
 <calculation>
  <scstep>
   <time name="dav">   79.20   79.38</time>
   <time name="total">   79.49   79.67</time>
   <dipole>
    <v name="dipole">      0.00000000       0.00000000       0.00015908 </v>
    <i name="Tr[quadrupol]">  -6120.52956571 </i>
    <i name="Echarged">      0.00000000 </i>
    <i name="Edipol_quadrupol">      0.00000000 </i>
    <i name="Eion">      0.00000000 </i>
   </dipole>
   <energy>
    <i name="alphaZ">    484.27740062 </i>
    <i name="ewald">  18221.12635985 </i>
    <i name="hartreedc"> -46396.77633370 </i>
    <i name="XCdc">  -1838.72747218 </i>
    <i name="pawpsdc">  27323.18997161 </i>
    <i name="pawaedc"> -24382.00609921 </i>
    <i name="eentropy">     -0.01997371 </i>
    <i name="bandstr">   1810.00476580 </i>
    <i name="atom">  26772.58429871 </i>
    <i name="e_fr_energy">   1993.65291781 </i>
    <i name="e_wo_entrp">   1993.67289152 </i>
    <i name="e_0_energy">   1993.66290466 </i>
   </energy>
  </scstep>
  <scstep>
   <time name="dav">   87.70   87.90</time>
   <time name="total">   87.70   87.90</time>
   <dipole>
    <v name="dipole">      0.00000000       0.00000000       0.00015908 </v>
    <i name="Tr[quadrupol]">  -6120.52956571 </i>
    <i name="Echarged">      0.00000000 </i>
    <i name="Edipol_quadrupol">      0.00000000 </i>
    <i name="Eion">      0.00000000 </i>
   </dipole>
   <energy>
    <i name="e_fr_energy">   -146.04146832 </i>
    <i name="e_wo_entrp">   -146.03131839 </i>
    <i name="e_0_energy">   -146.03639335 </i>
   </energy>
  </scstep>
  <scstep>
   <time name="dav">   90.88   91.08</time>
   <time name="total">   90.88   91.08</time>
   <dipole>
    <v name="dipole">      0.00000000       0.00000000       0.00015908 </v>
    <i name="Tr[quadrupol]">  -6120.52956571 </i>
    <i name="Echarged">      0.00000000 </i>
    <i name="Edipol_quadrupol">      0.00000000 </i>
    <i name="Eion">      0.00000000 </i>
   </dipole>
   <energy>
    <i name="e_fr_energy">   -224.88904609 </i>
    <i name="e_wo_entrp">   -224.88243092 </i>
    <i name="e_0_energy">   -224.88573850 </i>
   </energy>
  </scstep>
  <scstep>
   <time name="dav">   95.36   95.58</time>
   <time name="total">   95.36   95.58</time>
   <dipole>
    <v name="dipole">      0.00000000       0.00000000       0.00015908 </v>
    <i name="Tr[quadrupol]">  -6120.52956571 </i>
    <i name="Echarged">      0.00000000 </i>
    <i name="Edipol_quadrupol">      0.00000000 </i>
    <i name="Eion">      0.00000000 </i>
   </dipole>
   <energy>
    <i name="e_fr_energy">   -226.22053425 </i>
    <i name="e_wo_entrp">   -226.21379788 </i>
    <i name="e_0_energy">   -226.21716606 </i>
   </energy>
  </scstep>
  <scstep>
   <time name="dav">   96.82   97.03</time>
   <time name="total">   96.82   97.03</time>
   <dipole>
    <v name="dipole">      0.00000000       0.00000000       0.00015908 </v>
    <i name="Tr[quadrupol]">  -6120.52956571 </i>
    <i name="Echarged">      0.00000000 </i>
    <i name="Edipol_quadrupol">      0.00000000 </i>
    <i name="Eion">      0.00000000 </i>
   </dipole>
   <energy>
    <i name="e_fr_energy">   -226.24839505 </i>
    <i name="e_wo_entrp">   -226.24166045 </i>
    <i name="e_0_energy">   -226.24502775 </i>
   </energy>
  </scstep>
  <scstep>
   <time name="dav">   97.51   97.90</time>
   <time name="total">   97.51   97.90</time>
   <dipole>
    <v name="dipole">      0.00000000       0.00000000       0.00015908 </v>
    <i name="Tr[quadrupol]">  -6120.52956571 </i>
    <i name="Echarged">      0.00000000 </i>
    <i name="Edipol_quadrupol">      0.00000000 </i>
    <i name="Eion">      0.00000000 </i>
   </dipole>
   <energy>
    <i name="e_fr_energy">   -226.24948895 </i>
    <i name="e_wo_entrp">   -226.24275432 </i>
    <i name="e_0_energy">   -226.24612164 </i>
   </energy>
  </scstep>
  <scstep>
   <time name="dav">   92.03   93.07</time>
   <time name="total">   93.49   94.55</time>
   <dipole>
    <v name="dipole">      0.00000000       0.00000000       0.00015908 </v>
    <i name="Tr[quadrupol]">  -6120.52956571 </i>
    <i name="Echarged">      0.00000000 </i>
    <i name="Edipol_quadrupol">      0.00000000 </i>
    <i name="Eion">      0.00000000 </i>
   </dipole>
   <energy>
    <i name="e_fr_energy">   -226.24954036 </i>
    <i name="e_wo_entrp">   -226.24280574 </i>
    <i name="e_0_energy">   -226.24617305 </i>
   </energy>
  </scstep>
  <scstep>
   <time name="diag">   13.03   13.18</time>
   <time name="diis">   30.88   31.26</time>
   <time name="orth">    4.80    4.84</time>
   <time name="total">   50.45   51.03</time>
   <dipole>
    <v name="dipole">      0.00000000       0.00000000       0.00006062 </v>
    <i name="Tr[quadrupol]">  -6121.31407233 </i>
    <i name="Echarged">      0.00000000 </i>
    <i name="Edipol_quadrupol">      0.00000000 </i>
    <i name="Eion">      0.00000000 </i>
   </dipole>
   <energy>
    <i name="e_fr_energy">   -225.26919111 </i>
    <i name="e_wo_entrp">   -225.26235185 </i>
    <i name="e_0_energy">   -225.26577148 </i>
   </energy>
  </scstep>
  <scstep>
   <time name="diag">   13.03   13.17</time>
   <time name="diis">   30.77   31.15</time>
   <time name="orth">    4.78    4.83</time>
   <time name="total">   50.33   50.91</time>
   <dipole>
    <v name="dipole">      0.00000000       0.00000000       0.03320166 </v>
    <i name="Tr[quadrupol]">  -6128.06496034 </i>
    <i name="Echarged">      0.00000000 </i>
    <i name="Edipol_quadrupol">      0.00000000 </i>
    <i name="Eion">      0.00000000 </i>
   </dipole>
   <energy>
    <i name="e_fr_energy">   -220.10987054 </i>
    <i name="e_wo_entrp">   -220.10233887 </i>
    <i name="e_0_energy">   -220.10610471 </i>
   </energy>
  </scstep>
  <scstep>
   <time name="diag">   12.99   13.14</time>
   <time name="diis">   30.38   30.75</time>
   <time name="orth">    4.78    4.83</time>
   <time name="total">   49.88   50.47</time>
   <dipole>
    <v name="dipole">      0.00000000       0.00000000      -0.04396923 </v>
    <i name="Tr[quadrupol]">  -6129.27188587 </i>
    <i name="Echarged">      0.00000000 </i>
    <i name="Edipol_quadrupol">      0.00000000 </i>
    <i name="Eion">      0.00000000 </i>
   </dipole>
   <energy>
    <i name="e_fr_energy">   -219.56073641 </i>
    <i name="e_wo_entrp">   -219.55244823 </i>
    <i name="e_0_energy">   -219.55659232 </i>
   </energy>
  </scstep>
  <scstep>
   <time name="diag">   12.98   13.12</time>
   <time name="diis">   30.77   31.14</time>
   <time name="orth">    4.78    4.82</time>
   <time name="total">   50.24   50.83</time>
   <dipole>
    <v name="dipole">      0.00000000       0.00000000      -0.09149352 </v>
    <i name="Tr[quadrupol]">  -6130.30332128 </i>
    <i name="Echarged">      0.00000000 </i>
    <i name="Edipol_quadrupol">      0.00000000 </i>
    <i name="Eion">      0.00000000 </i>
   </dipole>
   <energy>
    <i name="e_fr_energy">   -219.17081529 </i>
    <i name="e_wo_entrp">   -219.16191699 </i>
    <i name="e_0_energy">   -219.16636614 </i>
   </energy>
  </scstep>
  <scstep>
   <time name="diag">   12.97   13.11</time>
   <time name="diis">   30.73   31.10</time>
   <time name="orth">    4.79    4.83</time>
   <time name="total">   50.21   50.81</time>
   <dipole>
    <v name="dipole">      0.00000000       0.00000000      -0.05823666 </v>
    <i name="Tr[quadrupol]">  -6131.41560413 </i>
    <i name="Echarged">      0.00000000 </i>
    <i name="Edipol_quadrupol">      0.00000000 </i>
    <i name="Eion">      0.00000000 </i>
   </dipole>
   <energy>
    <i name="e_fr_energy">   -218.87533472 </i>
    <i name="e_wo_entrp">   -218.86427309 </i>
    <i name="e_0_energy">   -218.86980391 </i>
   </energy>
  </scstep>
  <scstep>
   <time name="diag">   12.99   13.13</time>
   <time name="diis">   30.83   31.21</time>
   <time name="orth">    4.76    4.82</time>
   <time name="total">   50.32   50.91</time>
   <dipole>
    <v name="dipole">      0.00000000       0.00000000       0.08304680 </v>
    <i name="Tr[quadrupol]">  -6132.35471701 </i>
    <i name="Echarged">      0.00000000 </i>
    <i name="Edipol_quadrupol">      0.00000000 </i>
    <i name="Eion">      0.00000000 </i>
   </dipole>
   <energy>
    <i name="e_fr_energy">   -218.70953687 </i>
    <i name="e_wo_entrp">   -218.70236297 </i>
    <i name="e_0_energy">   -218.70594992 </i>
   </energy>
  </scstep>
  <scstep>
   <time name="diag">   12.98   13.12</time>
   <time name="diis">   30.95   31.20</time>
   <time name="orth">    4.79    4.80</time>
   <time name="total">   50.47   50.88</time>
   <dipole>
    <v name="dipole">      0.00000000       0.00000000      -0.19753774 </v>
    <i name="Tr[quadrupol]">  -6133.21430499 </i>
    <i name="Echarged">      0.00000000 </i>
    <i name="Edipol_quadrupol">      0.00000000 </i>
    <i name="Eion">      0.00000000 </i>
   </dipole>
   <energy>
    <i name="e_fr_energy">   -218.73258820 </i>
    <i name="e_wo_entrp">   -218.73046171 </i>
    <i name="e_0_energy">   -218.73152496 </i>
   </energy>
  </scstep>
  <scstep>
   <time name="diag">   13.08   13.11</time>
   <time name="diis">   31.07   31.14</time>
   <time name="orth">    4.80    4.81</time>
   <time name="total">   50.69   50.81</time>
   <dipole>
    <v name="dipole">      0.00000000       0.00000000      -0.11928403 </v>
    <i name="Tr[quadrupol]">  -6133.81923414 </i>
    <i name="Echarged">      0.00000000 </i>
    <i name="Edipol_quadrupol">      0.00000000 </i>
    <i name="Eion">      0.00000000 </i>
   </dipole>
   <energy>
    <i name="e_fr_energy">   -218.52864021 </i>
    <i name="e_wo_entrp">   -218.51952836 </i>
    <i name="e_0_energy">   -218.52408428 </i>
   </energy>
  </scstep>
  <scstep>
   <time name="diag">   13.09   13.12</time>
   <time name="diis">   31.14   31.21</time>
   <time name="orth">    4.79    4.80</time>
   <time name="total">   50.76   50.88</time>
   <dipole>
    <v name="dipole">      0.00000000       0.00000000      -0.10762758 </v>
    <i name="Tr[quadrupol]">  -6134.09995939 </i>
    <i name="Echarged">      0.00000000 </i>
    <i name="Edipol_quadrupol">      0.00000000 </i>
    <i name="Eion">      0.00000000 </i>
   </dipole>
   <energy>
    <i name="e_fr_energy">   -218.48902846 </i>
    <i name="e_wo_entrp">   -218.47745360 </i>
    <i name="e_0_energy">   -218.48324103 </i>
   </energy>
  </scstep>
  <scstep>
   <time name="diag">   13.08   13.11</time>
   <time name="diis">   31.04   31.11</time>
   <time name="orth">    4.80    4.81</time>
   <time name="total">   50.67   50.78</time>
   <dipole>
    <v name="dipole">      0.00000000       0.00000000      -0.06178251 </v>
    <i name="Tr[quadrupol]">  -6135.03723785 </i>
    <i name="Echarged">      0.00000000 </i>
    <i name="Edipol_quadrupol">      0.00000000 </i>
    <i name="Eion">      0.00000000 </i>
   </dipole>
   <energy>
    <i name="e_fr_energy">   -218.44921904 </i>
    <i name="e_wo_entrp">   -218.43651489 </i>
    <i name="e_0_energy">   -218.44286697 </i>
   </energy>
  </scstep>
  <scstep>
   <time name="diag">   13.07   13.10</time>
   <time name="diis">   31.09   31.16</time>
   <time name="orth">    5.08    5.09</time>
   <time name="total">   51.01   51.12</time>
   <dipole>
    <v name="dipole">      0.00000000       0.00000000       0.07489978 </v>
    <i name="Tr[quadrupol]">  -6135.15551306 </i>
    <i name="Echarged">      0.00000000 </i>
    <i name="Edipol_quadrupol">      0.00000000 </i>
    <i name="Eion">      0.00000000 </i>
   </dipole>
   <energy>
    <i name="e_fr_energy">   -218.47380510 </i>
    <i name="e_wo_entrp">   -218.46391961 </i>
    <i name="e_0_energy">   -218.46886235 </i>
   </energy>
  </scstep>
  <scstep>
   <time name="diag">   13.08   13.11</time>
   <time name="diis">   31.11   31.19</time>
   <time name="orth">    5.10    5.11</time>
   <time name="total">   51.04   51.17</time>
   <dipole>
    <v name="dipole">      0.00000000       0.00000000       0.07967422 </v>
    <i name="Tr[quadrupol]">  -6135.81786060 </i>
    <i name="Echarged">      0.00000000 </i>
    <i name="Edipol_quadrupol">      0.00000000 </i>
    <i name="Eion">      0.00000000 </i>
   </dipole>
   <energy>
    <i name="e_fr_energy">   -218.45169069 </i>
    <i name="e_wo_entrp">   -218.43986018 </i>
    <i name="e_0_energy">   -218.44577544 </i>
   </energy>
  </scstep>
  <scstep>
   <time name="diag">   13.06   13.10</time>
   <time name="diis">   31.10   31.19</time>
   <time name="orth">    5.08    5.10</time>
   <time name="total">   51.00   51.14</time>
   <dipole>
    <v name="dipole">      0.00000000       0.00000000       0.08099016 </v>
    <i name="Tr[quadrupol]">  -6136.00987762 </i>
    <i name="Echarged">      0.00000000 </i>
    <i name="Edipol_quadrupol">      0.00000000 </i>
    <i name="Eion">      0.00000000 </i>
   </dipole>
   <energy>
    <i name="e_fr_energy">   -218.44769328 </i>
    <i name="e_wo_entrp">   -218.43543187 </i>
    <i name="e_0_energy">   -218.44156258 </i>
   </energy>
  </scstep>
  <scstep>
   <time name="diag">   13.01   13.10</time>
   <time name="diis">   30.80   31.19</time>
   <time name="orth">    5.03    5.08</time>
   <time name="total">   50.57   51.13</time>
   <dipole>
    <v name="dipole">      0.00000000       0.00000000      -0.20266792 </v>
    <i name="Tr[quadrupol]">  -6137.00773237 </i>
    <i name="Echarged">      0.00000000 </i>
    <i name="Edipol_quadrupol">      0.00000000 </i>
    <i name="Eion">      0.00000000 </i>
   </dipole>
   <energy>
    <i name="e_fr_energy">   -218.64749553 </i>
    <i name="e_wo_entrp">   -218.64504444 </i>
    <i name="e_0_energy">   -218.64626999 </i>
   </energy>
  </scstep>
  <scstep>
   <time name="diag">   12.95   13.10</time>
   <time name="diis">   30.88   31.27</time>
   <time name="orth">    5.04    5.09</time>
   <time name="total">   50.60   51.22</time>
   <dipole>
    <v name="dipole">      0.00000000       0.00000000      -0.16137279 </v>
    <i name="Tr[quadrupol]">  -6137.14342822 </i>
    <i name="Echarged">      0.00000000 </i>
    <i name="Edipol_quadrupol">      0.00000000 </i>
    <i name="Eion">      0.00000000 </i>
   </dipole>
   <energy>
    <i name="e_fr_energy">   -218.58560585 </i>
    <i name="e_wo_entrp">   -218.58181486 </i>
    <i name="e_0_energy">   -218.58371035 </i>
   </energy>
  </scstep>
  <scstep>
   <time name="diag">   13.03   13.18</time>
   <time name="diis">   31.14   31.27</time>
   <time name="orth">    5.03    5.06</time>
   <time name="total">   50.94   51.26</time>
   <dipole>
    <v name="dipole">      0.00000000       0.00000000      -0.11075782 </v>
    <i name="Tr[quadrupol]">  -6137.74702680 </i>
    <i name="Echarged">      0.00000000 </i>
    <i name="Edipol_quadrupol">      0.00000000 </i>
    <i name="Eion">      0.00000000 </i>
   </dipole>
   <energy>
    <i name="e_fr_energy">   -218.50588375 </i>
    <i name="e_wo_entrp">   -218.49870698 </i>
    <i name="e_0_energy">   -218.50229536 </i>
   </energy>
  </scstep>
  <scstep>
   <time name="diag">   13.16   13.20</time>
   <time name="diis">   31.21   31.29</time>
   <time name="orth">    5.02    5.03</time>
   <time name="total">   51.14   51.28</time>
   <dipole>
    <v name="dipole">      0.00000000       0.00000000      -0.06516970 </v>
    <i name="Tr[quadrupol]">  -6138.09632098 </i>
    <i name="Echarged">      0.00000000 </i>
    <i name="Edipol_quadrupol">      0.00000000 </i>
    <i name="Eion">      0.00000000 </i>
   </dipole>
   <energy>
    <i name="e_fr_energy">   -218.45779166 </i>
    <i name="e_wo_entrp">   -218.44656701 </i>
    <i name="e_0_energy">   -218.45217934 </i>
   </energy>
  </scstep>
  <scstep>
   <time name="diag">   13.17   13.20</time>
   <time name="diis">   31.22   31.30</time>
   <time name="orth">    5.02    5.04</time>
   <time name="total">   51.17   51.30</time>
   <dipole>
    <v name="dipole">      0.00000000       0.00000000      -0.03254948 </v>
    <i name="Tr[quadrupol]">  -6138.26559552 </i>
    <i name="Echarged">      0.00000000 </i>
    <i name="Edipol_quadrupol">      0.00000000 </i>
    <i name="Eion">      0.00000000 </i>
   </dipole>
   <energy>
    <i name="e_fr_energy">   -218.44335281 </i>
    <i name="e_wo_entrp">   -218.43051462 </i>
    <i name="e_0_energy">   -218.43693371 </i>
   </energy>
  </scstep>
  <scstep>
   <time name="diag">   13.17   13.20</time>
   <time name="diis">   31.23   31.30</time>
   <time name="orth">    5.03    5.04</time>
   <time name="total">   51.20   51.32</time>
   <dipole>
    <v name="dipole">      0.00000000       0.00000000       0.01080378 </v>
    <i name="Tr[quadrupol]">  -6138.64922368 </i>
    <i name="Echarged">      0.00000000 </i>
    <i name="Edipol_quadrupol">      0.00000000 </i>
    <i name="Eion">      0.00000000 </i>
   </dipole>
   <energy>
    <i name="e_fr_energy">   -218.43993351 </i>
    <i name="e_wo_entrp">   -218.42666470 </i>
    <i name="e_0_energy">   -218.43329910 </i>
   </energy>
  </scstep>
  <scstep>
   <time name="diag">   13.18   13.21</time>
   <time name="diis">   31.07   31.14</time>
   <time name="orth">    5.03    5.04</time>
   <time name="total">   51.04   51.16</time>
   <dipole>
    <v name="dipole">      0.00000000       0.00000000       0.00846101 </v>
    <i name="Tr[quadrupol]">  -6138.80567911 </i>
    <i name="Echarged">      0.00000000 </i>
    <i name="Edipol_quadrupol">      0.00000000 </i>
    <i name="Eion">      0.00000000 </i>
   </dipole>
   <energy>
    <i name="e_fr_energy">   -218.43948576 </i>
    <i name="e_wo_entrp">   -218.42613209 </i>
    <i name="e_0_energy">   -218.43280893 </i>
   </energy>
  </scstep>
  <scstep>
   <time name="diag">   13.10   13.14</time>
   <time name="diis">   31.33   31.41</time>
   <time name="orth">    4.78    4.79</time>
   <time name="total">   50.99   51.11</time>
   <dipole>
    <v name="dipole">      0.00000000       0.00000000      -0.00095483 </v>
    <i name="Tr[quadrupol]">  -6139.01534595 </i>
    <i name="Echarged">      0.00000000 </i>
    <i name="Edipol_quadrupol">      0.00000000 </i>
    <i name="Eion">      0.00000000 </i>
   </dipole>
   <energy>
    <i name="e_fr_energy">   -218.43901941 </i>
    <i name="e_wo_entrp">   -218.42555669 </i>
    <i name="e_0_energy">   -218.43228805 </i>
   </energy>
  </scstep>
  <scstep>
   <time name="diag">   13.12   13.15</time>
   <time name="diis">   31.29   31.36</time>
   <time name="orth">    4.80    4.81</time>
   <time name="total">   50.96   51.08</time>
   <dipole>
    <v name="dipole">      0.00000000       0.00000000       0.00940695 </v>
    <i name="Tr[quadrupol]">  -6139.16118313 </i>
    <i name="Echarged">      0.00000000 </i>
    <i name="Edipol_quadrupol">      0.00000000 </i>
    <i name="Eion">      0.00000000 </i>
   </dipole>
   <energy>
    <i name="e_fr_energy">   -218.43948976 </i>
    <i name="e_wo_entrp">   -218.42609296 </i>
    <i name="e_0_energy">   -218.43279136 </i>
   </energy>
  </scstep>
  <scstep>
   <time name="diag">   13.11   13.15</time>
   <time name="diis">   31.29   31.37</time>
   <time name="orth">    4.79    4.80</time>
   <time name="total">   50.95   51.09</time>
   <dipole>
    <v name="dipole">      0.00000000       0.00000000       0.02366792 </v>
    <i name="Tr[quadrupol]">  -6139.46546058 </i>
    <i name="Echarged">      0.00000000 </i>
    <i name="Edipol_quadrupol">      0.00000000 </i>
    <i name="Eion">      0.00000000 </i>
   </dipole>
   <energy>
    <i name="e_fr_energy">   -218.43985085 </i>
    <i name="e_wo_entrp">   -218.42670669 </i>
    <i name="e_0_energy">   -218.43327877 </i>
   </energy>
  </scstep>
  <scstep>
   <time name="diag">   13.11   13.15</time>
   <time name="diis">   31.08   31.17</time>
   <time name="orth">    4.80    4.81</time>
   <time name="total">   50.75   50.89</time>
   <dipole>
    <v name="dipole">      0.00000000       0.00000000       0.05531875 </v>
    <i name="Tr[quadrupol]">  -6139.59719833 </i>
    <i name="Echarged">      0.00000000 </i>
    <i name="Edipol_quadrupol">      0.00000000 </i>
    <i name="Eion">      0.00000000 </i>
   </dipole>
   <energy>
    <i name="e_fr_energy">   -218.44265988 </i>
    <i name="e_wo_entrp">   -218.42981602 </i>
    <i name="e_0_energy">   -218.43623795 </i>
   </energy>
  </scstep>
  <scstep>
   <time name="diag">   13.10   13.14</time>
   <time name="diis">   30.88   30.97</time>
   <time name="orth">    4.79    4.80</time>
   <time name="total">   50.54   50.69</time>
   <dipole>
    <v name="dipole">      0.00000000       0.00000000       0.05545041 </v>
    <i name="Tr[quadrupol]">  -6139.62864314 </i>
    <i name="Echarged">      0.00000000 </i>
    <i name="Edipol_quadrupol">      0.00000000 </i>
    <i name="Eion">      0.00000000 </i>
   </dipole>
   <energy>
    <i name="e_fr_energy">   -218.44023256 </i>
    <i name="e_wo_entrp">   -218.42706559 </i>
    <i name="e_0_energy">   -218.43364907 </i>
   </energy>
  </scstep>
  <scstep>
   <time name="diag">   13.09   13.12</time>
   <time name="diis">   24.33   24.40</time>
   <time name="orth">    4.79    4.80</time>
   <time name="total">   43.98   44.11</time>
   <dipole>
    <v name="dipole">      0.00000000       0.00000000       0.06759386 </v>
    <i name="Tr[quadrupol]">  -6139.64852929 </i>
    <i name="Echarged">      0.00000000 </i>
    <i name="Edipol_quadrupol">      0.00000000 </i>
    <i name="Eion">      0.00000000 </i>
   </dipole>
   <energy>
    <i name="e_fr_energy">   -218.44145229 </i>
    <i name="e_wo_entrp">   -218.42838916 </i>
    <i name="e_0_energy">   -218.43492072 </i>
   </energy>
  </scstep>
  <scstep>
   <time name="diag">   13.07   13.11</time>
   <time name="diis">   31.09   31.18</time>
   <time name="orth">    4.79    4.80</time>
   <time name="total">   50.74   50.88</time>
   <dipole>
    <v name="dipole">      0.00000000       0.00000000      -0.04539243 </v>
    <i name="Tr[quadrupol]">  -6139.71147680 </i>
    <i name="Echarged">      0.00000000 </i>
    <i name="Edipol_quadrupol">      0.00000000 </i>
    <i name="Eion">      0.00000000 </i>
   </dipole>
   <energy>
    <i name="e_fr_energy">   -218.44842981 </i>
    <i name="e_wo_entrp">   -218.43622330 </i>
    <i name="e_0_energy">   -218.44232656 </i>
   </energy>
  </scstep>
  <scstep>
   <time name="diag">   13.08   13.11</time>
   <time name="diis">   30.86   30.95</time>
   <time name="orth">    4.79    4.80</time>
   <time name="total">   50.52   50.66</time>
   <dipole>
    <v name="dipole">      0.00000000       0.00000000      -0.08009604 </v>
    <i name="Tr[quadrupol]">  -6139.75785874 </i>
    <i name="Echarged">      0.00000000 </i>
    <i name="Edipol_quadrupol">      0.00000000 </i>
    <i name="Eion">      0.00000000 </i>
   </dipole>
   <energy>
    <i name="e_fr_energy">   -218.45777552 </i>
    <i name="e_wo_entrp">   -218.44644992 </i>
    <i name="e_0_energy">   -218.45211272 </i>
   </energy>
  </scstep>
  <scstep>
   <time name="diag">   13.09   13.13</time>
   <time name="diis">   30.17   30.25</time>
   <time name="orth">    4.79    4.80</time>
   <time name="total">   49.83   49.98</time>
   <dipole>
    <v name="dipole">      0.00000000       0.00000000      -0.09335154 </v>
    <i name="Tr[quadrupol]">  -6139.79860690 </i>
    <i name="Echarged">      0.00000000 </i>
    <i name="Edipol_quadrupol">      0.00000000 </i>
    <i name="Eion">      0.00000000 </i>
   </dipole>
   <energy>
    <i name="e_fr_energy">   -218.46156700 </i>
    <i name="e_wo_entrp">   -218.45056315 </i>
    <i name="e_0_energy">   -218.45606507 </i>
   </energy>
  </scstep>
  <scstep>
   <time name="diag">   13.07   13.11</time>
   <time name="diis">   31.17   31.26</time>
   <time name="orth">    4.79    4.80</time>
   <time name="total">   50.82   50.96</time>
   <dipole>
    <v name="dipole">      0.00000000       0.00000000      -0.01451930 </v>
    <i name="Tr[quadrupol]">  -6139.84265182 </i>
    <i name="Echarged">      0.00000000 </i>
    <i name="Edipol_quadrupol">      0.00000000 </i>
    <i name="Eion">      0.00000000 </i>
   </dipole>
   <energy>
    <i name="e_fr_energy">   -218.44062514 </i>
    <i name="e_wo_entrp">   -218.42740922 </i>
    <i name="e_0_energy">   -218.43401718 </i>
   </energy>
  </scstep>
  <scstep>
   <time name="diag">   13.02   13.06</time>
   <time name="diis">   30.85   30.93</time>
   <time name="orth">    4.80    4.81</time>
   <time name="total">   50.44   50.58</time>
   <dipole>
    <v name="dipole">      0.00000000       0.00000000       0.01637583 </v>
    <i name="Tr[quadrupol]">  -6139.84619353 </i>
    <i name="Echarged">      0.00000000 </i>
    <i name="Edipol_quadrupol">      0.00000000 </i>
    <i name="Eion">      0.00000000 </i>
   </dipole>
   <energy>
    <i name="e_fr_energy">   -218.43872517 </i>
    <i name="e_wo_entrp">   -218.42529691 </i>
    <i name="e_0_energy">   -218.43201104 </i>
   </energy>
  </scstep>
  <scstep>
   <time name="diag">   13.03   13.06</time>
   <time name="diis">   30.08   30.17</time>
   <time name="orth">    4.80    4.81</time>
   <time name="total">   49.68   49.82</time>
   <dipole>
    <v name="dipole">      0.00000000       0.00000000       0.02777537 </v>
    <i name="Tr[quadrupol]">  -6139.84889660 </i>
    <i name="Echarged">      0.00000000 </i>
    <i name="Edipol_quadrupol">      0.00000000 </i>
    <i name="Eion">      0.00000000 </i>
   </dipole>
   <energy>
    <i name="e_fr_energy">   -218.43893570 </i>
    <i name="e_wo_entrp">   -218.42550762 </i>
    <i name="e_0_energy">   -218.43222166 </i>
   </energy>
  </scstep>
  <scstep>
   <time name="diag">   13.03   13.07</time>
   <time name="diis">   28.26   28.34</time>
   <time name="orth">    4.79    4.80</time>
   <time name="total">   47.86   48.00</time>
   <dipole>
    <v name="dipole">      0.00000000       0.00000000       0.01454556 </v>
    <i name="Tr[quadrupol]">  -6139.88802053 </i>
    <i name="Echarged">      0.00000000 </i>
    <i name="Edipol_quadrupol">      0.00000000 </i>
    <i name="Eion">      0.00000000 </i>
   </dipole>
   <energy>
    <i name="e_fr_energy">   -218.43964650 </i>
    <i name="e_wo_entrp">   -218.42621873 </i>
    <i name="e_0_energy">   -218.43293262 </i>
   </energy>
  </scstep>
  <scstep>
   <time name="diag">   13.03   13.07</time>
   <time name="diis">   30.98   31.09</time>
   <time name="orth">    4.79    4.81</time>
   <time name="total">   50.59   50.75</time>
   <dipole>
    <v name="dipole">      0.00000000       0.00000000      -0.02578558 </v>
    <i name="Tr[quadrupol]">  -6139.92780947 </i>
    <i name="Echarged">      0.00000000 </i>
    <i name="Edipol_quadrupol">      0.00000000 </i>
    <i name="Eion">      0.00000000 </i>
   </dipole>
   <energy>
    <i name="e_fr_energy">   -218.44263410 </i>
    <i name="e_wo_entrp">   -218.42949211 </i>
    <i name="e_0_energy">   -218.43606310 </i>
   </energy>
  </scstep>
  <scstep>
   <time name="diag">   13.03   13.06</time>
   <time name="diis">   24.11   24.18</time>
   <time name="orth">    4.79    4.80</time>
   <time name="total">   43.71   43.83</time>
   <dipole>
    <v name="dipole">      0.00000000       0.00000000      -0.03254237 </v>
    <i name="Tr[quadrupol]">  -6139.93361356 </i>
    <i name="Echarged">      0.00000000 </i>
    <i name="Edipol_quadrupol">      0.00000000 </i>
    <i name="Eion">      0.00000000 </i>
   </dipole>
   <energy>
    <i name="e_fr_energy">   -218.44337099 </i>
    <i name="e_wo_entrp">   -218.43029487 </i>
    <i name="e_0_energy">   -218.43683293 </i>
   </energy>
  </scstep>
  <scstep>
   <time name="diag">   13.06   13.10</time>
   <time name="diis">   30.73   30.82</time>
   <time name="orth">    4.78    4.80</time>
   <time name="total">   50.37   50.51</time>
   <dipole>
    <v name="dipole">      0.00000000       0.00000000      -0.01163728 </v>
    <i name="Tr[quadrupol]">  -6139.93031676 </i>
    <i name="Echarged">      0.00000000 </i>
    <i name="Edipol_quadrupol">      0.00000000 </i>
    <i name="Eion">      0.00000000 </i>
   </dipole>
   <energy>
    <i name="e_fr_energy">   -218.44102939 </i>
    <i name="e_wo_entrp">   -218.42767573 </i>
    <i name="e_0_energy">   -218.43435256 </i>
   </energy>
  </scstep>
  <scstep>
   <time name="diag">   13.07   13.10</time>
   <time name="diis">   29.74   29.82</time>
   <time name="orth">    4.78    4.80</time>
   <time name="total">   49.38   49.52</time>
   <dipole>
    <v name="dipole">      0.00000000       0.00000000      -0.00310683 </v>
    <i name="Tr[quadrupol]">  -6139.93313117 </i>
    <i name="Echarged">      0.00000000 </i>
    <i name="Edipol_quadrupol">      0.00000000 </i>
    <i name="Eion">      0.00000000 </i>
   </dipole>
   <energy>
    <i name="e_fr_energy">   -218.44063265 </i>
    <i name="e_wo_entrp">   -218.42721480 </i>
    <i name="e_0_energy">   -218.43392373 </i>
   </energy>
  </scstep>
  <scstep>
   <time name="diag">   13.03   13.07</time>
   <time name="diis">   24.09   24.16</time>
   <time name="orth">    4.79    4.80</time>
   <time name="total">   42.18   42.30</time>
   <dipole>
    <v name="dipole">      0.00000000       0.00000000      -0.00223425 </v>
    <i name="Tr[quadrupol]">  -6139.93648758 </i>
    <i name="Echarged">      0.00000000 </i>
    <i name="Edipol_quadrupol">      0.00000000 </i>
    <i name="Eion">      0.00000000 </i>
   </dipole>
   <energy>
    <i name="alphaZ">    484.25995830 </i>
    <i name="ewald">  18221.12635985 </i>
    <i name="hartreedc"> -46597.99185997 </i>
    <i name="XCdc">  -1835.13041471 </i>
    <i name="pawpsdc">  33884.48214867 </i>
    <i name="pawaedc"> -30989.89005170 </i>
    <i name="eentropy">     -0.01342682 </i>
    <i name="bandstr">   -157.86765098 </i>
    <i name="atom">  26772.58429871 </i>
    <i name="e_fr_energy">   -218.44063864 </i>
    <i name="e_wo_entrp">   -218.42721181 </i>
    <i name="e_0_energy">   -218.43392523 </i>
   </energy>
  </scstep>
  <structure>
   <crystal>
    <varray name="basis" >
     <v>       8.39290047       0.00000000       0.00000000 </v>
     <v>       0.00399620      11.45019938       0.00000000 </v>
     <v>       0.00000000       0.00000000      16.35849953 </v>
    </varray>
    <i name="volume">   1572.05808216 </i>
    <varray name="rec_basis" >
     <v>       0.11914832      -0.00004158       0.00000000 </v>
     <v>       0.00000000       0.08733472       0.00000000 </v>
     <v>       0.00000000       0.00000000       0.06113030 </v>
    </varray>
   </crystal>
   <varray name="positions" >
    <v>       0.50000000       0.05537500       0.00000000 </v>
    <v>       0.79879999       0.30522501       0.00000000 </v>
    <v>       0.00000000       0.12707500       0.12957001 </v>
    <v>       0.29850000       0.37722501       0.12957001 </v>
    <v>       0.50000000       0.05537500       0.25913000 </v>
    <v>       0.79879999       0.30522501       0.25913000 </v>
    <v>       0.00000000       0.12707500       0.38870001 </v>
    <v>       0.29850000       0.37722501       0.38870001 </v>
    <v>       0.50000000       0.55537500       0.00000000 </v>
    <v>       0.79879999       0.80522501       0.00000000 </v>
    <v>       0.00000000       0.62707500       0.12957001 </v>
    <v>       0.29850000       0.87722501       0.12957001 </v>
    <v>       0.50000000       0.55537500       0.25913000 </v>
    <v>       0.79879999       0.80522501       0.25913000 </v>
    <v>       0.00000000       0.62707500       0.38870001 </v>
    <v>       0.29850000       0.87722501       0.38870001 </v>
    <v>       0.12980001       0.25002500       0.00000000 </v>
    <v>       0.16910000       0.49997500       0.00000000 </v>
    <v>       0.47170001       0.29502499       0.00000000 </v>
    <v>       0.82700002       0.04487500       0.00000000 </v>
    <v>       0.32710001       0.13757500       0.12957001 </v>
    <v>       0.62949997       0.43222499       0.12957001 </v>
    <v>       0.66900003       0.18237500       0.12957001 </v>
    <v>       0.97160000       0.38742501       0.12957001 </v>
    <v>       0.12980001       0.25002500       0.25913000 </v>
    <v>       0.16910000       0.49997500       0.25913000 </v>
    <v>       0.47170001       0.29502499       0.25913000 </v>
    <v>       0.82700002       0.04487500       0.25913000 </v>
    <v>       0.32710001       0.13757500       0.38870001 </v>
    <v>       0.62949997       0.43222499       0.38870001 </v>
    <v>       0.66900003       0.18237500       0.38870001 </v>
    <v>       0.97160000       0.38742501       0.38870001 </v>
    <v>       0.12980001       0.75002500       0.00000000 </v>
    <v>       0.16910000       0.99997500       0.00000000 </v>
    <v>       0.47170001       0.79502499       0.00000000 </v>
    <v>       0.82700002       0.54487500       0.00000000 </v>
    <v>       0.32710001       0.63757500       0.12957001 </v>
    <v>       0.62949997       0.93222499       0.12957001 </v>
    <v>       0.66900003       0.68237500       0.12957001 </v>
    <v>       0.97160000       0.88742501       0.12957001 </v>
    <v>       0.12980001       0.75002500       0.25913000 </v>
    <v>       0.16910000       0.99997500       0.25913000 </v>
    <v>       0.47170001       0.79502499       0.25913000 </v>
    <v>       0.82700002       0.54487500       0.25913000 </v>
    <v>       0.32710001       0.63757500       0.38870001 </v>
    <v>       0.62949997       0.93222499       0.38870001 </v>
    <v>       0.66900003       0.68237500       0.38870001 </v>
    <v>       0.97160000       0.88742501       0.38870001 </v>
   </varray>
  </structure>
  <varray name="forces" >
   <v>      -0.21787178      -0.17140372      -0.28972171 </v>
   <v>       0.21465786      -0.16354029      -0.29464115 </v>
   <v>       0.07307318      -0.00469544      -0.30060725 </v>
   <v>      -0.06201407       0.00193650      -0.29702192 </v>
   <v>       0.07731579      -0.00589095       0.29813884 </v>
   <v>      -0.08174285      -0.01861021       0.30042900 </v>
   <v>      -0.21743643       0.17296154       0.28266303 </v>
   <v>       0.21566167       0.18034844       0.29418655 </v>
   <v>      -0.21787178      -0.17140372      -0.28972171 </v>
   <v>       0.21465786      -0.16354029      -0.29464115 </v>
   <v>       0.07307318      -0.00469544      -0.30060725 </v>
   <v>      -0.06201407       0.00193650      -0.29702192 </v>
   <v>       0.07731579      -0.00589095       0.29813884 </v>
   <v>      -0.08174285      -0.01861021       0.30042900 </v>
   <v>      -0.21743643       0.17296154       0.28266303 </v>
   <v>       0.21566167       0.18034844       0.29418655 </v>
   <v>      -0.11484480      -0.07962269       0.40477741 </v>
   <v>       0.10541799      -0.07379194       0.40401542 </v>
   <v>       0.01784620       0.13691287       0.31348680 </v>
   <v>      -0.00532018       0.13289582       0.31788516 </v>
   <v>      -0.01869833       0.02472184      -0.05207542 </v>
   <v>       0.04164563      -0.03034942      -0.08305385 </v>
   <v>      -0.05349527      -0.04332717      -0.08712727 </v>
   <v>       0.03505466       0.03045221      -0.05952597 </v>
   <v>       0.03184024       0.03605323       0.08377159 </v>
   <v>      -0.06521552       0.04666636       0.09303532 </v>
   <v>       0.03284718      -0.02178701       0.05816951 </v>
   <v>      -0.01402412      -0.02310554       0.05822237 </v>
   <v>      -0.01520494      -0.13438107      -0.31678752 </v>
   <v>      -0.11053832       0.07836889      -0.40637583 </v>
   <v>       0.11418248       0.07428383      -0.40633523 </v>
   <v>       0.01686373      -0.14509606      -0.31550788 </v>
   <v>      -0.11484480      -0.07962269       0.40477741 </v>
   <v>       0.10541799      -0.07379194       0.40401542 </v>
   <v>       0.01784620       0.13691287       0.31348680 </v>
   <v>      -0.00532018       0.13289582       0.31788516 </v>
   <v>      -0.01869833       0.02472184      -0.05207542 </v>
   <v>       0.04164563      -0.03034942      -0.08305385 </v>
   <v>      -0.05349527      -0.04332717      -0.08712727 </v>
   <v>       0.03505466       0.03045221      -0.05952597 </v>
   <v>       0.03184024       0.03605323       0.08377159 </v>
   <v>      -0.06521552       0.04666636       0.09303532 </v>
   <v>       0.03284718      -0.02178701       0.05816951 </v>
   <v>      -0.01402412      -0.02310554       0.05822237 </v>
   <v>      -0.01520494      -0.13438107      -0.31678752 </v>
   <v>      -0.11053832       0.07836889      -0.40637583 </v>
   <v>       0.11418248       0.07428383      -0.40633523 </v>
   <v>       0.01686373      -0.14509606      -0.31550788 </v>
  </varray>
  <varray name="stress" >
   <v>     -28.04787111       0.01945945       0.01396073 </v>
   <v>       0.01945953     -23.57542364       2.99378168 </v>
   <v>       0.01396068       2.99378170      -7.31484477 </v>
  </varray>
  <energy>
   <i name="e_fr_energy">   -218.44063864 </i>
   <i name="e_wo_entrp">   -218.43392523 </i>
   <i name="e_0_energy">     -0.01342682 </i>
  </energy>
  <time name="totalsc"> 2593.62 2605.39</time>
 </calculation>
 <calculation>
  <scstep>
   <time name="dav">   80.03   80.25</time>
   <time name="total">   81.81   82.04</time>
   <dipole>
    <v name="dipole">      0.00000000       0.00000000      -0.00602487 </v>
    <i name="Tr[quadrupol]">  -6140.09109623 </i>
    <i name="Echarged">      0.00000000 </i>
    <i name="Edipol_quadrupol">      0.00000000 </i>
    <i name="Eion">      0.00000000 </i>
   </dipole>
   <energy>
    <i name="alphaZ">    484.25352585 </i>
    <i name="ewald">  18259.13361360 </i>
    <i name="hartreedc"> -46636.14589224 </i>
    <i name="XCdc">  -1835.09737711 </i>
    <i name="pawpsdc">  33885.01973767 </i>
    <i name="pawaedc"> -30990.42034524 </i>
    <i name="eentropy">     -0.01355055 </i>
    <i name="bandstr">   -157.78437913 </i>
    <i name="atom">  26772.58429871 </i>
    <i name="e_fr_energy">   -218.47036844 </i>
    <i name="e_wo_entrp">   -218.45681789 </i>
    <i name="e_0_energy">   -218.46359316 </i>
   </energy>
  </scstep>
  <scstep>
   <time name="diag">   13.04   13.08</time>
   <time name="diis">   30.86   30.95</time>
   <time name="orth">    4.79    4.80</time>
   <time name="total">   50.45   50.60</time>
   <dipole>
    <v name="dipole">      0.00000000       0.00000000      -0.00446401 </v>
    <i name="Tr[quadrupol]">  -6140.09423816 </i>
    <i name="Echarged">      0.00000000 </i>
    <i name="Edipol_quadrupol">      0.00000000 </i>
    <i name="Eion">      0.00000000 </i>
   </dipole>
   <energy>
    <i name="e_fr_energy">   -218.47245876 </i>
    <i name="e_wo_entrp">   -218.45889968 </i>
    <i name="e_0_energy">   -218.46567922 </i>
   </energy>
  </scstep>
  <scstep>
   <time name="diag">   13.04   13.08</time>
   <time name="diis">   37.83   37.93</time>
   <time name="orth">    4.79    4.80</time>
   <time name="total">   57.40   57.56</time>
   <dipole>
    <v name="dipole">      0.00000000       0.00000000      -0.00320088 </v>
    <i name="Tr[quadrupol]">  -6140.09686855 </i>
    <i name="Echarged">      0.00000000 </i>
    <i name="Edipol_quadrupol">      0.00000000 </i>
    <i name="Eion">      0.00000000 </i>
   </dipole>
   <energy>
    <i name="e_fr_energy">   -218.47257095 </i>
    <i name="e_wo_entrp">   -218.45901116 </i>
    <i name="e_0_energy">   -218.46579105 </i>
   </energy>
  </scstep>
  <scstep>
   <time name="diag">   13.05   13.08</time>
   <time name="diis">   24.62   24.69</time>
   <time name="orth">    4.80    4.81</time>
   <time name="total">   44.22   44.35</time>
   <dipole>
    <v name="dipole">      0.00000000       0.00000000      -0.00280157 </v>
    <i name="Tr[quadrupol]">  -6140.09820648 </i>
    <i name="Echarged">      0.00000000 </i>
    <i name="Edipol_quadrupol">      0.00000000 </i>
    <i name="Eion">      0.00000000 </i>
   </dipole>
   <energy>
    <i name="e_fr_energy">   -218.47254943 </i>
    <i name="e_wo_entrp">   -218.45899045 </i>
    <i name="e_0_energy">   -218.46576994 </i>
   </energy>
  </scstep>
  <scstep>
   <time name="diag">   13.05   13.09</time>
   <time name="diis">   30.22   30.31</time>
   <time name="orth">    4.80    4.81</time>
   <time name="total">   49.83   49.97</time>
   <dipole>
    <v name="dipole">      0.00000000       0.00000000      -0.00193969 </v>
    <i name="Tr[quadrupol]">  -6140.10381781 </i>
    <i name="Echarged">      0.00000000 </i>
    <i name="Edipol_quadrupol">      0.00000000 </i>
    <i name="Eion">      0.00000000 </i>
   </dipole>
   <energy>
    <i name="e_fr_energy">   -218.47248570 </i>
    <i name="e_wo_entrp">   -218.45892892 </i>
    <i name="e_0_energy">   -218.46570731 </i>
   </energy>
  </scstep>
  <scstep>
   <time name="diag">   13.03   13.07</time>
   <time name="diis">   22.98   23.05</time>
   <time name="orth">    4.79    4.80</time>
   <time name="total">   42.58   42.70</time>
   <dipole>
    <v name="dipole">      0.00000000       0.00000000      -0.00202050 </v>
    <i name="Tr[quadrupol]">  -6140.10521124 </i>
    <i name="Echarged">      0.00000000 </i>
    <i name="Edipol_quadrupol">      0.00000000 </i>
    <i name="Eion">      0.00000000 </i>
   </dipole>
   <energy>
    <i name="e_fr_energy">   -218.47247561 </i>
    <i name="e_wo_entrp">   -218.45891722 </i>
    <i name="e_0_energy">   -218.46569642 </i>
   </energy>
  </scstep>
  <scstep>
   <time name="diag">   13.06   13.10</time>
   <time name="diis">   22.98   23.04</time>
   <time name="orth">    4.77    4.78</time>
   <time name="total">   41.09   41.21</time>
   <dipole>
    <v name="dipole">      0.00000000       0.00000000      -0.00208203 </v>
    <i name="Tr[quadrupol]">  -6140.10549881 </i>
    <i name="Echarged">      0.00000000 </i>
    <i name="Edipol_quadrupol">      0.00000000 </i>
    <i name="Eion">      0.00000000 </i>
   </dipole>
   <energy>
    <i name="alphaZ">    484.26914380 </i>
    <i name="ewald">  18259.13361360 </i>
    <i name="hartreedc"> -46636.15535991 </i>
    <i name="XCdc">  -1835.10596974 </i>
    <i name="pawpsdc">  33889.09418986 </i>
    <i name="pawaedc"> -30994.58384764 </i>
    <i name="eentropy">     -0.01356324 </i>
    <i name="bandstr">   -157.69497744 </i>
    <i name="atom">  26772.58429871 </i>
    <i name="e_fr_energy">   -218.47247200 </i>
    <i name="e_wo_entrp">   -218.45890876 </i>
    <i name="e_0_energy">   -218.46569038 </i>
   </energy>
  </scstep>
  <structure>
   <crystal>
    <varray name="basis" >
     <v>       8.39290047       0.00000000       0.00000000 </v>
     <v>       0.00399620      11.45019938       0.00000000 </v>
     <v>       0.00000000       0.00000000      16.35849953 </v>
    </varray>
    <i name="volume">   1572.05808216 </i>
    <varray name="rec_basis" >
     <v>       0.11914832      -0.00004158       0.00000000 </v>
     <v>       0.00000000       0.08733472       0.00000000 </v>
     <v>       0.00000000       0.00000000       0.06113030 </v>
    </varray>
   </crystal>
   <varray name="positions" >
    <v>       0.50000000       0.05537500       0.00000000 </v>
    <v>       0.79879999       0.30522501       0.00000000 </v>
    <v>       0.00000000       0.12707500       0.12957001 </v>
    <v>       0.29850000       0.37722501       0.12957001 </v>
    <v>       0.50013333       0.05536755       0.25939377 </v>
    <v>       0.79865905       0.30520149       0.25939580 </v>
    <v>      -0.00037505       0.12729362       0.38895009 </v>
    <v>       0.29887178       0.37745297       0.38896028 </v>
    <v>       0.50000000       0.55537500       0.00000000 </v>
    <v>       0.79879999       0.80522501       0.00000000 </v>
    <v>       0.00000000       0.62707500       0.12957001 </v>
    <v>       0.29850000       0.87722501       0.12957001 </v>
    <v>       0.50013333       0.55536755       0.25939377 </v>
    <v>       0.79865905       0.80520149       0.25939580 </v>
    <v>      -0.00037505       0.62729362       0.38895009 </v>
    <v>       0.29887178       0.87745297       0.38896028 </v>
    <v>       0.12980001       0.25002500       0.00000000 </v>
    <v>       0.16910000       0.49997500       0.00000000 </v>
    <v>       0.47170001       0.29502499       0.00000000 </v>
    <v>       0.82700002       0.04487500       0.00000000 </v>
    <v>       0.32710001       0.13757500       0.12957001 </v>
    <v>       0.62949997       0.43222499       0.12957001 </v>
    <v>       0.66900003       0.18237500       0.12957001 </v>
    <v>       0.97160000       0.38742501       0.12957001 </v>
    <v>       0.12985489       0.25007057       0.25920412 </v>
    <v>       0.16898751       0.50003398       0.25921231 </v>
    <v>       0.47175667       0.29499745       0.25918147 </v>
    <v>       0.82697585       0.04484579       0.25918151 </v>
    <v>       0.32707387       0.13740515       0.38841974 </v>
    <v>       0.62930931       0.43232405       0.38834048 </v>
    <v>       0.66919688       0.18246889       0.38834051 </v>
    <v>       0.97162916       0.38724161       0.38842087 </v>
    <v>       0.12980001       0.75002500       0.00000000 </v>
    <v>       0.16910000       0.99997500       0.00000000 </v>
    <v>       0.47170001       0.79502499       0.00000000 </v>
    <v>       0.82700002       0.54487500       0.00000000 </v>
    <v>       0.32710001       0.63757500       0.12957001 </v>
    <v>       0.62949997       0.93222499       0.12957001 </v>
    <v>       0.66900003       0.68237500       0.12957001 </v>
    <v>       0.97160000       0.88742501       0.12957001 </v>
    <v>       0.12985489       0.75007057       0.25920412 </v>
    <v>       0.16898751       1.00003398       0.25921231 </v>
    <v>       0.47175667       0.79499745       0.25918147 </v>
    <v>       0.82697585       0.54484579       0.25918151 </v>
    <v>       0.32707387       0.63740515       0.38841974 </v>
    <v>       0.62930931       0.93232405       0.38834048 </v>
    <v>       0.66919688       0.68246889       0.38834051 </v>
    <v>       0.97162916       0.88724161       0.38842087 </v>
   </varray>
  </structure>
  <varray name="forces" >
   <v>      -0.21755745      -0.17203199      -0.28632812 </v>
   <v>       0.21488825      -0.16414616      -0.29124918 </v>
   <v>       0.07306278      -0.00227187      -0.29250514 </v>
   <v>      -0.06164129       0.00458334      -0.28756115 </v>
   <v>       0.06408853      -0.00233816       0.23830614 </v>
   <v>      -0.06932025      -0.00997035       0.23766427 </v>
   <v>      -0.20804799       0.16721967       0.27149925 </v>
   <v>       0.20478828       0.16322162       0.27417344 </v>
   <v>      -0.21755745      -0.17203199      -0.28632812 </v>
   <v>       0.21488825      -0.16414616      -0.29124918 </v>
   <v>       0.07306278      -0.00227187      -0.29250514 </v>
   <v>      -0.06164129       0.00458334      -0.28756115 </v>
   <v>       0.06408853      -0.00233816       0.23830614 </v>
   <v>      -0.06932025      -0.00997035       0.23766427 </v>
   <v>      -0.20804799       0.16721967       0.27149925 </v>
   <v>       0.20478828       0.16322162       0.27417344 </v>
   <v>      -0.11442295      -0.07955092       0.40477013 </v>
   <v>       0.10559048      -0.07374588       0.40401978 </v>
   <v>       0.01871682       0.13582316       0.31396209 </v>
   <v>      -0.00569048       0.13184099       0.31833275 </v>
   <v>      -0.01295850       0.01968268      -0.03897445 </v>
   <v>       0.03934539      -0.02874057      -0.07426216 </v>
   <v>      -0.05062272      -0.04196204      -0.07865351 </v>
   <v>       0.02957401       0.02549394      -0.04656833 </v>
   <v>       0.03224082       0.03061499       0.08086524 </v>
   <v>      -0.05768719       0.04187317       0.08604184 </v>
   <v>       0.01633195      -0.02118583       0.04989075 </v>
   <v>       0.00074294      -0.02267998       0.04866782 </v>
   <v>      -0.03345713      -0.11855129      -0.29460777 </v>
   <v>      -0.09894046       0.07142301      -0.37226353 </v>
   <v>       0.10064949       0.06872364      -0.37030581 </v>
   <v>       0.03032667      -0.12332518      -0.29491435 </v>
   <v>      -0.11442295      -0.07955092       0.40477013 </v>
   <v>       0.10559048      -0.07374588       0.40401978 </v>
   <v>       0.01871682       0.13582316       0.31396209 </v>
   <v>      -0.00569048       0.13184099       0.31833275 </v>
   <v>      -0.01295850       0.01968268      -0.03897445 </v>
   <v>       0.03934539      -0.02874057      -0.07426216 </v>
   <v>      -0.05062272      -0.04196204      -0.07865351 </v>
   <v>       0.02957401       0.02549394      -0.04656833 </v>
   <v>       0.03224082       0.03061499       0.08086524 </v>
   <v>      -0.05768719       0.04187317       0.08604184 </v>
   <v>       0.01633195      -0.02118583       0.04989075 </v>
   <v>       0.00074294      -0.02267998       0.04866782 </v>
   <v>      -0.03345713      -0.11855129      -0.29460777 </v>
   <v>      -0.09894046       0.07142301      -0.37226353 </v>
   <v>       0.10064949       0.06872364      -0.37030581 </v>
   <v>       0.03032667      -0.12332518      -0.29491435 </v>
  </varray>
  <varray name="stress" >
   <v>     -28.05130247       0.03986440       0.01635820 </v>
   <v>       0.03986451     -23.54295737       3.00840973 </v>
   <v>       0.01635820       3.00840979      -7.17475922 </v>
  </varray>
  <energy>
   <i name="e_fr_energy">   -218.47247200 </i>
   <i name="e_wo_entrp">   -218.46569038 </i>
   <i name="e_0_energy">     -0.01356324 </i>
  </energy>
  <time name="totalsc">  421.51  422.71</time>
 </calculation>
 <calculation>
  <scstep>
   <time name="dav">   77.35   77.57</time>
   <time name="total">   79.11   79.33</time>
   <dipole>
    <v name="dipole">      0.00000000       0.00000000      -0.00278767 </v>
    <i name="Tr[quadrupol]">  -6140.27814681 </i>
    <i name="Echarged">      0.00000000 </i>
    <i name="Edipol_quadrupol">      0.00000000 </i>
    <i name="Eion">      0.00000000 </i>
   </dipole>
   <energy>
    <i name="alphaZ">    484.26581948 </i>
    <i name="ewald">  18522.92730074 </i>
    <i name="hartreedc"> -46899.73476198 </i>
    <i name="XCdc">  -1834.88247393 </i>
    <i name="pawpsdc">  33889.09933661 </i>
    <i name="pawaedc"> -30994.58655644 </i>
    <i name="eentropy">     -0.01283168 </i>
    <i name="bandstr">   -158.16211822 </i>
    <i name="atom">  26772.58429871 </i>
    <i name="e_fr_energy">   -218.50198670 </i>
    <i name="e_wo_entrp">   -218.48915502 </i>
    <i name="e_0_energy">   -218.49557086 </i>
   </energy>
  </scstep>
  <scstep>
   <time name="diag">   13.08   13.12</time>
   <time name="diis">   30.89   30.97</time>
   <time name="orth">    4.76    4.77</time>
   <time name="total">   50.49   50.62</time>
   <dipole>
    <v name="dipole">      0.00000000       0.00000000      -0.00929752 </v>
    <i name="Tr[quadrupol]">  -6140.29916429 </i>
    <i name="Echarged">      0.00000000 </i>
    <i name="Edipol_quadrupol">      0.00000000 </i>
    <i name="Eion">      0.00000000 </i>
   </dipole>
   <energy>
    <i name="e_fr_energy">   -218.59985745 </i>
    <i name="e_wo_entrp">   -218.58696647 </i>
    <i name="e_0_energy">   -218.59341196 </i>
   </energy>
  </scstep>
  <scstep>
   <time name="diag">   13.09   13.12</time>
   <time name="diis">   37.67   38.14</time>
   <time name="orth">    4.75    4.79</time>
   <time name="total">   57.27   57.81</time>
   <dipole>
    <v name="dipole">      0.00000000       0.00000000      -0.01240124 </v>
    <i name="Tr[quadrupol]">  -6140.31792877 </i>
    <i name="Echarged">      0.00000000 </i>
    <i name="Edipol_quadrupol">      0.00000000 </i>
    <i name="Eion">      0.00000000 </i>
   </dipole>
   <energy>
    <i name="e_fr_energy">   -218.60585180 </i>
    <i name="e_wo_entrp">   -218.59290556 </i>
    <i name="e_0_energy">   -218.59937868 </i>
   </energy>
  </scstep>
  <scstep>
   <time name="diag">   13.09   13.12</time>
   <time name="diis">   31.42   31.52</time>
   <time name="orth">    4.78    4.79</time>
   <time name="total">   51.05   51.20</time>
   <dipole>
    <v name="dipole">      0.00000000       0.00000000      -0.01276392 </v>
    <i name="Tr[quadrupol]">  -6140.32775633 </i>
    <i name="Echarged">      0.00000000 </i>
    <i name="Edipol_quadrupol">      0.00000000 </i>
    <i name="Eion">      0.00000000 </i>
   </dipole>
   <energy>
    <i name="e_fr_energy">   -218.60487411 </i>
    <i name="e_wo_entrp">   -218.59186084 </i>
    <i name="e_0_energy">   -218.59836748 </i>
   </energy>
  </scstep>
  <scstep>
[...]
       <r>   -3.3675    1.0000 </r>
       <r>   -3.3245    1.0000 </r>
       <r>   -2.3815    1.0000 </r>
       <r>   -2.2413    1.0000 </r>
       <r>   -2.1855    1.0000 </r>
       <r>   -2.1135    1.0000 </r>
       <r>   -2.0793    1.0000 </r>
       <r>   -2.0189    1.0000 </r>
       <r>   -1.9922    1.0000 </r>
       <r>   -1.9064    1.0000 </r>
       <r>   -1.8874    1.0000 </r>
       <r>   -1.8354    1.0000 </r>
       <r>   -1.7464    1.0000 </r>
       <r>   -1.7130    1.0000 </r>
       <r>   -1.7006    1.0000 </r>
       <r>   -1.6145    1.0000 </r>
       <r>   -1.6001    1.0000 </r>
       <r>   -1.5752    1.0000 </r>
       <r>   -1.5284    1.0000 </r>
       <r>   -1.4925    1.0000 </r>
       <r>   -1.4860    1.0000 </r>
       <r>   -1.4630    1.0000 </r>
       <r>   -1.4098    1.0000 </r>
       <r>   -1.4070    1.0000 </r>
       <r>   -1.3249    1.0000 </r>
       <r>   -1.3035    1.0000 </r>
       <r>   -1.3030    1.0000 </r>
       <r>   -1.2746    1.0000 </r>
       <r>   -1.2653    1.0000 </r>
       <r>   -1.2332    1.0000 </r>
       <r>   -1.2312    1.0000 </r>
       <r>   -1.1877    1.0000 </r>
       <r>   -1.1485    1.0000 </r>
       <r>   -1.1219    1.0000 </r>
       <r>   -1.1162    1.0000 </r>
       <r>   -1.0645    1.0000 </r>
       <r>   -1.0542    1.0000 </r>
       <r>   -1.0389    1.0000 </r>
       <r>   -1.0132    1.0000 </r>
       <r>   -1.0077    1.0000 </r>
       <r>   -0.9485    1.0000 </r>
       <r>   -0.9406    1.0000 </r>
       <r>   -0.9309    1.0000 </r>
       <r>   -0.8871    1.0000 </r>
       <r>   -0.8833    1.0000 </r>
       <r>   -0.8567    1.0000 </r>
       <r>   -0.8491    1.0000 </r>
       <r>   -0.8322    1.0000 </r>
       <r>   -0.7983    1.0000 </r>
       <r>   -0.7976    1.0000 </r>
       <r>   -0.7753    1.0000 </r>
       <r>   -0.7625    1.0000 </r>
       <r>   -0.7181    1.0000 </r>
       <r>   -0.7075    1.0000 </r>
       <r>   -0.6852    1.0000 </r>
       <r>   -0.6849    1.0000 </r>
       <r>   -0.6431    1.0000 </r>
       <r>   -0.6177    1.0000 </r>
       <r>   -0.5676    1.0000 </r>
       <r>   -0.5530    1.0000 </r>
       <r>   -0.5307    1.0000 </r>
       <r>   -0.5131    1.0000 </r>
       <r>   -0.4809    1.0000 </r>
       <r>   -0.4699    1.0000 </r>
       <r>   -0.4467    1.0000 </r>
       <r>   -0.4349    1.0000 </r>
       <r>   -0.4143    1.0000 </r>
       <r>   -0.3944    1.0000 </r>
       <r>   -0.3808    1.0000 </r>
       <r>   -0.3555    1.0000 </r>
       <r>   -0.3502    1.0000 </r>
       <r>   -0.3168    1.0000 </r>
       <r>   -0.3023    1.0000 </r>
       <r>   -0.2875    1.0000 </r>
       <r>   -0.2420    1.0000 </r>
       <r>   -0.2396    1.0000 </r>
       <r>   -0.2093    1.0000 </r>
       <r>   -0.2044    1.0000 </r>
       <r>   -0.1741    1.0000 </r>
       <r>   -0.1502    1.0000 </r>
       <r>   -0.1167    1.0000 </r>
       <r>   -0.1094    1.0000 </r>
       <r>   -0.0854    1.0000 </r>
       <r>   -0.0195    1.0000 </r>
       <r>   -0.0083    1.0000 </r>
       <r>    0.0258    1.0000 </r>
       <r>    0.0290    1.0000 </r>
       <r>    0.0686    1.0000 </r>
       <r>    0.0708    1.0000 </r>
       <r>    0.0968    1.0000 </r>
       <r>    0.1011    1.0000 </r>
       <r>    0.1359    1.0000 </r>
       <r>    0.1429    1.0000 </r>
       <r>    0.1669    1.0000 </r>
       <r>    0.1683    1.0000 </r>
       <r>    0.2147    1.0000 </r>
       <r>    0.2284    1.0000 </r>
       <r>    0.2598    1.0000 </r>
       <r>    0.2760    1.0000 </r>
       <r>    0.2920    1.0000 </r>
       <r>    0.3008    1.0000 </r>
       <r>    0.3236    1.0000 </r>
       <r>    0.3493    1.0000 </r>
       <r>    0.3555    1.0000 </r>
       <r>    0.3633    1.0000 </r>
       <r>    0.3892    1.0000 </r>
       <r>    0.4160    1.0000 </r>
       <r>    0.4266    1.0000 </r>
       <r>    0.4435    1.0000 </r>
       <r>    0.4874    1.0000 </r>
       <r>    0.4973    1.0000 </r>
       <r>    0.5233    1.0000 </r>
       <r>    0.5376    1.0000 </r>
       <r>    0.5429    1.0000 </r>
       <r>    0.5482    1.0000 </r>
       <r>    0.5552    1.0000 </r>
       <r>    0.5664    1.0000 </r>
       <r>    0.5948    1.0000 </r>
       <r>    0.6114    1.0000 </r>
       <r>    0.6302    1.0000 </r>
       <r>    0.6340    1.0000 </r>
       <r>    0.6483    1.0000 </r>
       <r>    0.6591    1.0000 </r>
       <r>    0.6707    1.0000 </r>
       <r>    0.6884    1.0000 </r>
       <r>    0.7128    1.0000 </r>
       <r>    0.7387    1.0000 </r>
       <r>    0.7412    1.0000 </r>
       <r>    0.7683    1.0000 </r>
       <r>    0.7873    1.0000 </r>
       <r>    0.8043    1.0000 </r>
       <r>    0.8188    1.0000 </r>
       <r>    0.8400    1.0000 </r>
       <r>    0.8478    1.0000 </r>
       <r>    0.8581    1.0000 </r>
       <r>    0.8955    1.0000 </r>
       <r>    0.9271    1.0000 </r>
       <r>    0.9347    1.0000 </r>
       <r>    0.9578    1.0000 </r>
       <r>    0.9594    1.0000 </r>
       <r>    0.9952    1.0000 </r>
       <r>    0.9978    1.0000 </r>
       <r>    1.0100    1.0000 </r>
       <r>    1.0346    1.0000 </r>
       <r>    1.0538    1.0000 </r>
       <r>    1.0711    1.0000 </r>
       <r>    1.0885    1.0000 </r>
       <r>    1.1005    1.0000 </r>
       <r>    1.1347    1.0000 </r>
       <r>    1.1417    1.0000 </r>
       <r>    1.1718    1.0000 </r>
       <r>    1.1959    1.0000 </r>
       <r>    1.2165    1.0000 </r>
       <r>    1.2772    1.0000 </r>
       <r>    1.2981    1.0000 </r>
       <r>    1.3531    1.0000 </r>
       <r>    1.3724    1.0000 </r>
       <r>    1.3844    1.0000 </r>
       <r>    1.4308    1.0000 </r>
       <r>    1.4607    1.0000 </r>
       <r>    1.5064    1.0000 </r>
       <r>    1.5777    1.0000 </r>
       <r>    1.6241    1.0000 </r>
       <r>    1.6247    1.0000 </r>
       <r>    1.6658    1.0000 </r>
       <r>    1.8391    1.0000 </r>
       <r>    1.8718    1.0000 </r>
       <r>    1.9738    1.0000 </r>
       <r>    2.0187    1.0000 </r>
       <r>    2.0548    1.0000 </r>
       <r>    2.1897    1.0000 </r>
       <r>    2.3460    0.0102 </r>
       <r>    2.3932    0.0000 </r>
       <r>    2.6740    0.0000 </r>
       <r>    2.6780    0.0000 </r>
       <r>    2.8095    0.0000 </r>
       <r>    2.9586    0.0000 </r>
       <r>    3.0764    0.0000 </r>
       <r>    3.1064    0.0000 </r>
       <r>    3.3439    0.0000 </r>
       <r>    3.3846    0.0000 </r>
       <r>    3.4672    0.0000 </r>
       <r>    3.5969    0.0000 </r>
       <r>    3.6065    0.0000 </r>
       <r>    3.8904    0.0000 </r>
       <r>    3.9569    0.0000 </r>
       <r>    3.9653    0.0000 </r>
       <r>    4.1055    0.0000 </r>
       <r>    4.3071    0.0000 </r>
       <r>    4.3171    0.0000 </r>
       <r>    4.5370    0.0000 </r>
       <r>    4.5943    0.0000 </r>
       <r>    4.7607    0.0000 </r>
       <r>    4.7807    0.0000 </r>
       <r>    5.0672    0.0000 </r>
       <r>    5.1600    0.0000 </r>
       <r>    5.3168    0.0000 </r>
       <r>    5.3780    0.0000 </r>
       <r>    5.3909    0.0000 </r>
       <r>    5.4200    0.0000 </r>
       <r>    5.5073    0.0000 </r>
       <r>    5.6090    0.0000 </r>
       <r>    5.8134    0.0000 </r>
       <r>    5.8959    0.0000 </r>
       <r>    6.0235    0.0000 </r>
       <r>    6.1212    0.0000 </r>
       <r>    6.2583    0.0000 </r>
       <r>    6.3411    0.0000 </r>
       <r>    6.4454    0.0000 </r>
       <r>    6.5191    0.0000 </r>
       <r>    6.6644    0.0000 </r>
       <r>    6.7255    0.0000 </r>
       <r>    6.8757    0.0000 </r>
       <r>    6.9320    0.0000 </r>
       <r>    6.9858    0.0000 </r>
       <r>    7.0342    0.0000 </r>
       <r>    7.1384    0.0000 </r>
       <r>    7.2222    0.0000 </r>
       <r>    7.3318    0.0000 </r>
       <r>    7.3327    0.0000 </r>
       <r>    7.4726    0.0000 </r>
       <r>    7.5467    0.0000 </r>
       <r>    7.6903    0.0000 </r>
       <r>    7.7159    0.0000 </r>
       <r>    7.8107    0.0000 </r>
       <r>    7.9696    0.0000 </r>
       <r>    7.9781    0.0000 </r>
       <r>    8.0983    0.0000 </r>
       <r>    8.1554    0.0000 </r>
       <r>    8.2712    0.0000 </r>
       <r>    8.2845    0.0000 </r>
       <r>    8.3409    0.0000 </r>
       <r>    8.4967    0.0000 </r>
       <r>    8.5612    0.0000 </r>
       <r>    8.5772    0.0000 </r>
       <r>    8.6576    0.0000 </r>
       <r>    8.7030    0.0000 </r>
       <r>    8.7994    0.0000 </r>
       <r>    8.8486    0.0000 </r>
       <r>    8.9733    0.0000 </r>
       <r>    8.9828    0.0000 </r>
       <r>    9.0215    0.0000 </r>
       <r>    9.1804    0.0000 </r>
       <r>    9.2725    0.0000 </r>
       <r>    9.3081    0.0000 </r>
       <r>    9.3925    0.0000 </r>
       <r>    9.4138    0.0000 </r>
       <r>    9.4888    0.0000 </r>
       <r>    9.6549    0.0000 </r>
       <r>    9.6571    0.0000 </r>
       <r>    9.8328    0.0000 </r>
       <r>    9.8424    0.0000 </r>
       <r>    9.8610    0.0000 </r>
       <r>    9.9177    0.0000 </r>
       <r>    9.9224    0.0000 </r>
       <r>   10.0375    0.0000 </r>
       <r>   10.1397    0.0000 </r>
       <r>   10.3072    0.0000 </r>
       <r>   10.3307    0.0000 </r>
       <r>   10.3798    0.0000 </r>
       <r>   10.4164    0.0000 </r>
       <r>   10.4497    0.0000 </r>
       <r>   10.5348    0.0000 </r>
       <r>   10.5711    0.0000 </r>
       <r>   10.6069    0.0000 </r>
       <r>   10.6966    0.0000 </r>
       <r>   10.7422    0.0000 </r>
       <r>   10.8107    0.0000 </r>
       <r>   10.8344    0.0000 </r>
       <r>   10.8604    0.0000 </r>
       <r>   10.9648    0.0000 </r>
       <r>   10.9967    0.0000 </r>
       <r>   11.0695    0.0000 </r>
       <r>   11.1134    0.0000 </r>
       <r>   11.1864    0.0000 </r>
       <r>   11.2203    0.0000 </r>
       <r>   11.2212    0.0000 </r>
       <r>   11.3657    0.0000 </r>
       <r>   11.3973    0.0000 </r>
       <r>   11.5190    0.0000 </r>
       <r>   11.5420    0.0000 </r>
       <r>   11.5915    0.0000 </r>
       <r>   11.5984    0.0000 </r>
       <r>   11.6649    0.0000 </r>
       <r>   11.6874    0.0000 </r>
       <r>   11.7077    0.0000 </r>
       <r>   11.8308    0.0000 </r>
       <r>   11.8763    0.0000 </r>
       <r>   11.9729    0.0000 </r>
       <r>   12.0290    0.0000 </r>
       <r>   12.0368    0.0000 </r>
       <r>   12.1292    0.0000 </r>
       <r>   12.1567    0.0000 </r>
       <r>   12.2321    0.0000 </r>
       <r>   12.3022    0.0000 </r>
       <r>   12.4017    0.0000 </r>
       <r>   12.4174    0.0000 </r>
       <r>   12.4645    0.0000 </r>
       <r>   12.5534    0.0000 </r>
       <r>   12.5879    0.0000 </r>
       <r>   12.6620    0.0000 </r>
       <r>   12.7100    0.0000 </r>
       <r>   12.7816    0.0000 </r>
       <r>   12.7848    0.0000 </r>
       <r>   12.8192    0.0000 </r>
       <r>   12.8832    0.0000 </r>
       <r>   12.9247    0.0000 </r>
       <r>   12.9555    0.0000 </r>
       <r>   12.9935    0.0000 </r>
       <r>   13.1305    0.0000 </r>
       <r>   13.1858    0.0000 </r>
       <r>   13.2343    0.0000 </r>
       <r>   13.2429    0.0000 </r>
       <r>   13.3176    0.0000 </r>
       <r>   13.3547    0.0000 </r>
       <r>   13.3694    0.0000 </r>
       <r>   13.4091    0.0000 </r>
       <r>   13.4155    0.0000 </r>
       <r>   13.5262    0.0000 </r>
       <r>   13.5583    0.0000 </r>
       <r>   13.5681    0.0000 </r>
       <r>   13.5736    0.0000 </r>
       <r>   13.6403    0.0000 </r>
       <r>   13.6624    0.0000 </r>
       <r>   13.7240    0.0000 </r>
       <r>   13.7583    0.0000 </r>
       <r>   13.8025    0.0000 </r>
       <r>   13.8424    0.0000 </r>
       <r>   13.8822    0.0000 </r>
       <r>   13.8972    0.0000 </r>
       <r>   13.9529    0.0000 </r>
       <r>   13.9552    0.0000 </r>
       <r>   14.0077    0.0000 </r>
       <r>   14.1355    0.0000 </r>
       <r>   14.1462    0.0000 </r>
       <r>   14.2179    0.0000 </r>
       <r>   14.2294    0.0000 </r>
       <r>   14.3707    0.0000 </r>
       <r>   14.4745    0.0000 </r>
       <r>   14.5459    0.0000 </r>
       <r>   14.5980    0.0000 </r>
       <r>   14.6047    0.0000 </r>
       <r>   14.6899    0.0000 </r>
       <r>   14.6910    0.0000 </r>
       <r>   14.7292    0.0000 </r>
       <r>   14.8357    0.0000 </r>
       <r>   14.8395    0.0000 </r>
       <r>   14.9094    0.0000 </r>
       <r>   14.9849    0.0000 </r>
       <r>   15.0127    0.0000 </r>
       <r>   15.0766    0.0000 </r>
       <r>   15.2034    0.0000 </r>
       <r>   15.2547    0.0000 </r>
       <r>   15.2555    0.0000 </r>
       <r>   15.2782    0.0000 </r>
       <r>   15.2862    0.0000 </r>
       <r>   15.3220    0.0000 </r>
       <r>   15.3649    0.0000 </r>
       <r>   15.3874    0.0000 </r>
       <r>   15.4092    0.0000 </r>
       <r>   15.4716    0.0000 </r>
       <r>   15.5376    0.0000 </r>
       <r>   15.6189    0.0000 </r>
       <r>   15.6721    0.0000 </r>
       <r>   15.7024    0.0000 </r>
       <r>   15.7418    0.0000 </r>
       <r>   15.7992    0.0000 </r>
       <r>   15.8617    0.0000 </r>
       <r>   15.8695    0.0000 </r>
       <r>   15.9184    0.0000 </r>
       <r>   15.9647    0.0000 </r>
       <r>   15.9944    0.0000 </r>
       <r>   16.0043    0.0000 </r>
       <r>   16.0235    0.0000 </r>
       <r>   16.0588    0.0000 </r>
       <r>   16.1219    0.0000 </r>
       <r>   16.1278    0.0000 </r>
       <r>   16.1599    0.0000 </r>
       <r>   16.2019    0.0000 </r>
       <r>   16.2528    0.0000 </r>
       <r>   16.2823    0.0000 </r>
       <r>   16.3364    0.0000 </r>
       <r>   16.3532    0.0000 </r>
       <r>   16.3808    0.0000 </r>
       <r>   16.3884    0.0000 </r>
       <r>   16.4723    0.0000 </r>
       <r>   16.4935    0.0000 </r>
       <r>   16.5223    0.0000 </r>
       <r>   16.5869    0.0000 </r>
       <r>   16.6215    0.0000 </r>
       <r>   16.6431    0.0000 </r>
       <r>   16.6940    0.0000 </r>
       <r>   16.7821    0.0000 </r>
       <r>   16.8435    0.0000 </r>
      </set>
     </set>
    </set>
   </array>
  </eigenvalues>
  <separator name="orbital magnetization" >
   <v name="MAGDIPOLOUT">      0.00000000      0.00000000      0.00000000</v>
  </separator>
 </calculation>
 <structure name="finalpos" >
  <crystal>
   <varray name="basis" >
    <v>       8.39290047       0.00000000       0.00000000 </v>
    <v>       0.00399620      11.45019938       0.00000000 </v>
    <v>       0.00000000       0.00000000      16.35849953 </v>
   </varray>
   <i name="volume">   1572.05808216 </i>
   <varray name="rec_basis" >
    <v>       0.11914832      -0.00004158       0.00000000 </v>
    <v>       0.00000000       0.08733472       0.00000000 </v>
    <v>       0.00000000       0.00000000       0.06113030 </v>
   </varray>
  </crystal>
  <varray name="positions" >
   <v>       0.50000000       0.05537500       0.00000000 </v>
   <v>       0.79879999       0.30522501       0.00000000 </v>
   <v>       0.00000000       0.12707500       0.12957001 </v>
   <v>       0.29850000       0.37722501       0.12957001 </v>
   <v>       0.50069784       0.05621057       0.25891827 </v>
   <v>       0.79779875       0.30615666       0.25894480 </v>
   <v>      -0.01307326       0.13483323       0.39472359 </v>
   <v>       0.31249518       0.38491676       0.39468651 </v>
   <v>       0.50000000       0.55537500       0.00000000 </v>
   <v>       0.79879999       0.80522501       0.00000000 </v>
   <v>       0.00000000       0.62707500       0.12957001 </v>
   <v>       0.29850000       0.87722501       0.12957001 </v>
   <v>       0.50069784       0.55621057       0.25891827 </v>
   <v>       0.79779875       0.80615666       0.25894480 </v>
   <v>      -0.01307326       0.63483323       0.39472359 </v>
   <v>       0.31249518       0.88491676       0.39468651 </v>
   <v>       0.12980001       0.25002500       0.00000000 </v>
   <v>       0.16910000       0.49997500       0.00000000 </v>
   <v>       0.47170001       0.29502499       0.00000000 </v>
   <v>       0.82700002       0.04487500       0.00000000 </v>
   <v>       0.32710001       0.13757500       0.12957001 </v>
   <v>       0.62949997       0.43222499       0.12957001 </v>
   <v>       0.66900003       0.18237500       0.12957001 </v>
   <v>       0.97160000       0.38742501       0.12957001 </v>
   <v>       0.12890735       0.24932152       0.25956085 </v>
   <v>       0.16926503       0.49929041       0.25963924 </v>
   <v>       0.46778506       0.29616525       0.25898026 </v>
   <v>       0.83082742       0.04625994       0.25913170 </v>
   <v>       0.31608066       0.14096096       0.38264513 </v>
   <v>       0.63640463       0.43475845       0.38218065 </v>
   <v>       0.66285787       0.18461491       0.38218982 </v>
   <v>       0.98346687       0.39084745       0.38268258 </v>
   <v>       0.12980001       0.75002500       0.00000000 </v>
   <v>       0.16910000       0.99997500       0.00000000 </v>
   <v>       0.47170001       0.79502499       0.00000000 </v>
   <v>       0.82700002       0.54487500       0.00000000 </v>
   <v>       0.32710001       0.63757500       0.12957001 </v>
   <v>       0.62949997       0.93222499       0.12957001 </v>
   <v>       0.66900003       0.68237500       0.12957001 </v>
   <v>       0.97160000       0.88742501       0.12957001 </v>
   <v>       0.12890735       0.74932152       0.25956085 </v>
   <v>       0.16926503       0.99929041       0.25963924 </v>
   <v>       0.46778506       0.79616525       0.25898026 </v>
   <v>       0.83082742       0.54625994       0.25913170 </v>
   <v>       0.31608066       0.64096096       0.38264513 </v>
   <v>       0.63640463       0.93475845       0.38218065 </v>
   <v>       0.66285787       0.68461491       0.38218982 </v>
   <v>       0.98346687       0.89084745       0.38268258 </v>
  </varray>
  <varray name="selective"  type="logical" >
   <v type="logical" >  F  F  F </v>
   <v type="logical" >  F  F  F </v>
   <v type="logical" >  F  F  F </v>
   <v type="logical" >  F  F  F </v>
   <v type="logical" >  T  T  T </v>
   <v type="logical" >  T  T  T </v>
   <v type="logical" >  T  T  T </v>
   <v type="logical" >  T  T  T </v>
   <v type="logical" >  F  F  F </v>
   <v type="logical" >  F  F  F </v>
   <v type="logical" >  F  F  F </v>
   <v type="logical" >  F  F  F </v>
   <v type="logical" >  T  T  T </v>
   <v type="logical" >  T  T  T </v>
   <v type="logical" >  T  T  T </v>
   <v type="logical" >  T  T  T </v>
   <v type="logical" >  F  F  F </v>
   <v type="logical" >  F  F  F </v>
   <v type="logical" >  F  F  F </v>
   <v type="logical" >  F  F  F </v>
   <v type="logical" >  F  F  F </v>
   <v type="logical" >  F  F  F </v>
   <v type="logical" >  F  F  F </v>
   <v type="logical" >  F  F  F </v>
   <v type="logical" >  T  T  T </v>
   <v type="logical" >  T  T  T </v>
   <v type="logical" >  T  T  T </v>
   <v type="logical" >  T  T  T </v>
   <v type="logical" >  T  T  T </v>
   <v type="logical" >  T  T  T </v>
   <v type="logical" >  T  T  T </v>
   <v type="logical" >  T  T  T </v>
   <v type="logical" >  F  F  F </v>
   <v type="logical" >  F  F  F </v>
   <v type="logical" >  F  F  F </v>
   <v type="logical" >  F  F  F </v>
   <v type="logical" >  F  F  F </v>
   <v type="logical" >  F  F  F </v>
   <v type="logical" >  F  F  F </v>
   <v type="logical" >  F  F  F </v>
   <v type="logical" >  T  T  T </v>
   <v type="logical" >  T  T  T </v>
   <v type="logical" >  T  T  T </v>
   <v type="logical" >  T  T  T </v>
   <v type="logical" >  T  T  T </v>
   <v type="logical" >  T  T  T </v>
   <v type="logical" >  T  T  T </v>
   <v type="logical" >  T  T  T </v>
  </varray>
  <nose>
   <v>      -3.00000000       0.00000000       0.00010000       0.00010000 </v>
  </nose>
 </structure>
</modeling>
