  12  12   0   0
  0.1624061E+02  0.5616760E-09  0.4217100E-09  0.8227800E-09  0.1500000E-15
  1.000000000000000E-004
  CAR 
 bulk                                    
     17.24301741     -1.40754288  301      8.42062155      1.00000000
     -1.408  0.0000E+00  0.0000E+00
     -1.345  0.0000E+00  0.0000E+00
     -1.283  0.0000E+00  0.0000E+00
     -1.221  0.0000E+00  0.0000E+00
     -1.159  0.0000E+00  0.0000E+00
     -1.097  0.0000E+00  0.0000E+00
     -1.035  0.0000E+00  0.0000E+00
     -0.972  0.0000E+00  0.0000E+00
     -0.910  0.0000E+00  0.0000E+00
     -0.848  0.0000E+00  0.0000E+00
     -0.786  0.0000E+00  0.0000E+00
     -0.724  0.9301E-17  0.5782E-18
     -0.662  0.1359E-08  0.8447E-10
     -0.599  0.5210E-04  0.3239E-05
     -0.537  0.1383E-02  0.8924E-04
     -0.475  0.2679E-03  0.1059E-03
     -0.413  0.5552E-02  0.4511E-03
     -0.351  0.4465E-02  0.7286E-03
     -0.289  0.4916E-02  0.1034E-02
     -0.226  0.1493E-01  0.1963E-02
     -0.164  0.1270E-02  0.2042E-02
     -0.102  0.1149E-01  0.2756E-02
     -0.040  0.1232E-02  0.2833E-02
      0.022  0.7604E-02  0.3305E-02
      0.085  0.2477E-02  0.3459E-02
      0.147  0.2513E-01  0.5022E-02
      0.209  0.1480E-01  0.5942E-02
      0.271  0.1952E-01  0.7155E-02
      0.333  0.2051E-01  0.8431E-02
      0.395  0.1117E-03  0.8437E-02
      0.458  0.3318E-04  0.8440E-02
      0.520  0.8145E-02  0.8946E-02
      0.582  0.1207E-01  0.9696E-02
      0.644  0.2053E-01  0.1097E-01
      0.706  0.3122E-01  0.1291E-01
      0.768  0.1964E-01  0.1413E-01
      0.831  0.2274E-01  0.1555E-01
      0.893  0.2383E-01  0.1703E-01
      0.955  0.1605E-01  0.1803E-01
      1.017  0.2051E-01  0.1930E-01
      1.079  0.1131E-01  0.2001E-01
      1.141  0.2886E-01  0.2180E-01
      1.204  0.2952E-01  0.2363E-01
      1.266  0.3088E-01  0.2555E-01
      1.328  0.1700E-01  0.2661E-01
      1.390  0.1265E-01  0.2740E-01
      1.452  0.1530E-01  0.2835E-01
      1.514  0.1140E-01  0.2906E-01
      1.577  0.3691E-01  0.3135E-01
      1.639  0.3586E-01  0.3358E-01
      1.701  0.3548E-01  0.3579E-01
      1.763  0.1641E-01  0.3681E-01
      1.825  0.3219E-01  0.3881E-01
      1.887  0.2986E-01  0.4067E-01
      1.950  0.3661E-01  0.4294E-01
      2.012  0.4777E-01  0.4591E-01
      2.074  0.3839E-01  0.4830E-01
      2.136  0.5759E-01  0.5188E-01
      2.198  0.9714E-01  0.5792E-01
      2.260  0.8993E-01  0.6351E-01
      2.323  0.8016E-01  0.6849E-01
      2.385  0.5425E-01  0.7186E-01
      2.447  0.4311E-01  0.7454E-01
      2.509  0.3599E-01  0.7678E-01
      2.571  0.3212E-01  0.7878E-01
      2.633  0.4620E-02  0.7906E-01
      2.696  0.5128E-02  0.7938E-01
      2.758  0.5417E-02  0.7972E-01
      2.820  0.3325E-02  0.7993E-01
      2.882  0.1163E-02  0.8000E-01
      2.944  0.9425E-05  0.8000E-01
      3.006  0.3866E-10  0.8000E-01
      3.069  0.0000E+00  0.8000E-01
      3.131  0.2992E-11  0.8000E-01
      3.193  0.3402E-05  0.8000E-01
      3.255  0.1465E-02  0.8009E-01
      3.317  0.2437E-02  0.8024E-01
      3.379  0.1065E-01  0.8090E-01
      3.442  0.1748E-01  0.8199E-01
      3.504  0.1804E-01  0.8311E-01
      3.566  0.5117E-01  0.8629E-01
      3.628  0.6161E-01  0.9012E-01
      3.690  0.1217E+00  0.9769E-01
      3.752  0.1011E+00  0.1040E+00
      3.815  0.8486E-01  0.1093E+00
      3.877  0.6078E-01  0.1130E+00
      3.939  0.8656E-01  0.1184E+00
      4.001  0.9900E-01  0.1246E+00
      4.063  0.8400E-01  0.1298E+00
      4.125  0.7045E-01  0.1342E+00
      4.188  0.1101E+00  0.1410E+00
      4.250  0.1183E+00  0.1484E+00
      4.312  0.1255E+00  0.1562E+00
      4.374  0.9432E-01  0.1620E+00
      4.436  0.1559E+00  0.1717E+00
      4.498  0.1749E+00  0.1826E+00
      4.561  0.2061E+00  0.1954E+00
      4.623  0.2031E+00  0.2080E+00
      4.685  0.1756E+00  0.2189E+00
      4.747  0.1778E+00  0.2300E+00
      4.809  0.2539E+00  0.2458E+00
      4.871  0.2278E+00  0.2600E+00
      4.934  0.2125E+00  0.2732E+00
      4.996  0.1920E+00  0.2851E+00
      5.058  0.3000E+00  0.3037E+00
      5.120  0.3096E+00  0.3230E+00
      5.182  0.3132E+00  0.3425E+00
      5.244  0.3134E+00  0.3619E+00
      5.307  0.3043E+00  0.3809E+00
      5.369  0.2319E+00  0.3953E+00
      5.431  0.2397E+00  0.4102E+00
      5.493  0.2304E+00  0.4245E+00
      5.555  0.2081E+00  0.4374E+00
      5.618  0.2176E+00  0.4510E+00
      5.680  0.2247E+00  0.4649E+00
      5.742  0.1980E+00  0.4773E+00
      5.804  0.1966E+00  0.4895E+00
      5.866  0.1706E+00  0.5001E+00
      5.928  0.1874E+00  0.5117E+00
      5.991  0.2234E+00  0.5256E+00
      6.053  0.1714E+00  0.5363E+00
      6.115  0.2124E+00  0.5495E+00
      6.177  0.2445E+00  0.5647E+00
      6.239  0.2013E+00  0.5772E+00
      6.301  0.2118E+00  0.5904E+00
      6.364  0.2732E+00  0.6073E+00
      6.426  0.2902E+00  0.6254E+00
      6.488  0.2628E+00  0.6417E+00
      6.550  0.2773E+00  0.6590E+00
      6.612  0.2718E+00  0.6759E+00
      6.674  0.2202E+00  0.6896E+00
      6.737  0.2422E+00  0.7046E+00
      6.799  0.1966E+00  0.7168E+00
      6.861  0.2630E+00  0.7332E+00
      6.923  0.2865E+00  0.7510E+00
      6.985  0.3639E+00  0.7736E+00
      7.047  0.2582E+00  0.7897E+00
      7.110  0.3452E+00  0.8111E+00
      7.172  0.2200E+00  0.8248E+00
      7.234  0.1318E+00  0.8330E+00
      7.296  0.9734E-01  0.8391E+00
      7.358  0.1164E+00  0.8463E+00
      7.420  0.1242E+00  0.8540E+00
      7.483  0.1051E+00  0.8605E+00
      7.545  0.1420E+00  0.8694E+00
      7.607  0.9843E-01  0.8755E+00
      7.669  0.1408E+00  0.8842E+00
      7.731  0.6441E-01  0.8882E+00
      7.793  0.2844E-01  0.8900E+00
      7.856  0.3969E-01  0.8925E+00
      7.918  0.1833E-01  0.8936E+00
      7.980  0.1767E-01  0.8947E+00
      8.042  0.4065E-01  0.8973E+00
      8.104  0.5134E-01  0.9004E+00
      8.166  0.5904E-01  0.9041E+00
      8.229  0.6716E-01  0.9083E+00
      8.291  0.5431E-01  0.9117E+00
      8.353  0.6577E-01  0.9158E+00
      8.415  0.6358E-01  0.9197E+00
      8.477  0.4318E-01  0.9224E+00
      8.539  0.5514E-01  0.9258E+00
      8.602  0.5106E-01  0.9290E+00
      8.664  0.4566E-01  0.9318E+00
      8.726  0.2137E-01  0.9332E+00
      8.788  0.4695E-01  0.9361E+00
      8.850  0.3407E-01  0.9382E+00
      8.912  0.3099E-01  0.9401E+00
      8.975  0.2698E-01  0.9418E+00
      9.037  0.1242E-01  0.9426E+00
      9.099  0.3770E-01  0.9449E+00
      9.161  0.2925E-01  0.9467E+00
      9.223  0.4128E-01  0.9493E+00
      9.285  0.4063E-01  0.9518E+00
      9.348  0.2343E-01  0.9533E+00
      9.410  0.3174E-01  0.9553E+00
      9.472  0.3672E-01  0.9575E+00
      9.534  0.4715E-01  0.9605E+00
      9.596  0.2747E-01  0.9622E+00
      9.658  0.8984E-01  0.9678E+00
      9.721  0.5043E-01  0.9709E+00
      9.783  0.3414E-01  0.9730E+00
      9.845  0.4396E-01  0.9758E+00
      9.907  0.2520E-01  0.9773E+00
      9.969  0.3222E-01  0.9793E+00
     10.031  0.3153E-01  0.9813E+00
     10.094  0.2506E-01  0.9828E+00
     10.156  0.1693E-01  0.9839E+00
     10.218  0.4225E-01  0.9865E+00
     10.280  0.4111E-01  0.9891E+00
     10.342  0.2803E-01  0.9908E+00
     10.404  0.5183E-01  0.9940E+00
     10.467  0.4284E-01  0.9967E+00
     10.529  0.5950E-01  0.1000E+01
     10.591  0.2817E-01  0.1002E+01
     10.653  0.8303E-02  0.1003E+01
     10.715  0.2835E-01  0.1004E+01
     10.777  0.3513E-01  0.1007E+01
     10.840  0.4727E-01  0.1010E+01
     10.902  0.2532E-01  0.1011E+01
     10.964  0.2846E-01  0.1013E+01
     11.026  0.2951E-01  0.1015E+01
     11.088  0.2316E-01  0.1016E+01
     11.151  0.1664E-01  0.1017E+01
     11.213  0.4063E-01  0.1020E+01
     11.275  0.5218E-01  0.1023E+01
     11.337  0.4420E-01  0.1026E+01
     11.399  0.3128E-01  0.1028E+01
     11.461  0.2869E-01  0.1029E+01
     11.524  0.2978E-01  0.1031E+01
     11.586  0.9583E-02  0.1032E+01
     11.648  0.2135E-01  0.1033E+01
     11.710  0.4520E-01  0.1036E+01
     11.772  0.5933E-01  0.1040E+01
     11.834  0.3042E-01  0.1042E+01
     11.897  0.3115E-01  0.1044E+01
     11.959  0.3036E-01  0.1045E+01
     12.021  0.5238E-01  0.1049E+01
     12.083  0.4425E-01  0.1051E+01
     12.145  0.2211E-01  0.1053E+01
     12.207  0.1995E-01  0.1054E+01
     12.270  0.3085E-01  0.1056E+01
     12.332  0.4906E-01  0.1059E+01
     12.394  0.6437E-01  0.1063E+01
     12.456  0.4697E-01  0.1066E+01
     12.518  0.1913E-01  0.1067E+01
     12.580  0.5872E-01  0.1071E+01
     12.643  0.5362E-01  0.1074E+01
     12.705  0.2995E-01  0.1076E+01
     12.767  0.1453E-01  0.1077E+01
     12.829  0.4713E-01  0.1080E+01
     12.891  0.4484E-01  0.1083E+01
     12.953  0.2946E-01  0.1084E+01
     13.016  0.5832E-01  0.1088E+01
     13.078  0.5159E-01  0.1091E+01
     13.140  0.5083E-01  0.1094E+01
     13.202  0.2102E-01  0.1096E+01
     13.264  0.5044E-01  0.1099E+01
     13.326  0.4635E-01  0.1102E+01
     13.389  0.6104E-01  0.1106E+01
     13.451  0.3751E-01  0.1108E+01
     13.513  0.2632E-01  0.1110E+01
     13.575  0.3604E-01  0.1112E+01
     13.637  0.2303E-01  0.1113E+01
     13.699  0.3977E-01  0.1116E+01
     13.762  0.2836E-01  0.1117E+01
     13.824  0.3250E-01  0.1119E+01
     13.886  0.3039E-01  0.1121E+01
     13.948  0.6892E-01  0.1126E+01
     14.010  0.3435E-01  0.1128E+01
     14.072  0.2666E-01  0.1129E+01
     14.135  0.4942E-01  0.1132E+01
     14.197  0.4837E-01  0.1135E+01
     14.259  0.5494E-01  0.1139E+01
     14.321  0.4517E-01  0.1142E+01
     14.383  0.3610E-01  0.1144E+01
     14.445  0.2594E-01  0.1146E+01
     14.508  0.4775E-01  0.1149E+01
     14.570  0.3252E-01  0.1151E+01
     14.632  0.1834E-01  0.1152E+01
     14.694  0.4184E-01  0.1154E+01
     14.756  0.9558E-01  0.1160E+01
     14.818  0.6250E-01  0.1164E+01
     14.881  0.2896E-01  0.1166E+01
     14.943  0.4913E-01  0.1169E+01
     15.005  0.8209E-01  0.1174E+01
     15.067  0.4045E-01  0.1177E+01
     15.129  0.3117E-01  0.1179E+01
     15.191  0.2912E-01  0.1180E+01
     15.254  0.7818E-01  0.1185E+01
     15.316  0.2325E-01  0.1187E+01
     15.378  0.2434E-01  0.1188E+01
     15.440  0.5666E-01  0.1192E+01
     15.502  0.3416E-01  0.1194E+01
     15.564  0.1978E-01  0.1195E+01
     15.627  0.1733E-01  0.1196E+01
     15.689  0.3098E-01  0.1198E+01
     15.751  0.1209E-01  0.1199E+01
     15.813  0.6391E-02  0.1199E+01
     15.875  0.5717E-02  0.1200E+01
     15.937  0.3391E-03  0.1200E+01
     16.000  0.1637E-07  0.1200E+01
     16.062  0.2128E-15  0.1200E+01
     16.124  0.0000E+00  0.1200E+01
     16.186  0.0000E+00  0.1200E+01
     16.248  0.1441E-13  0.1200E+01
     16.310  0.2156E-06  0.1200E+01
     16.373  0.9601E-03  0.1200E+01
     16.435  0.5534E-02  0.1200E+01
     16.497  0.2084E-03  0.1200E+01
     16.559  0.5435E-08  0.1200E+01
     16.621  0.3720E-16  0.1200E+01
     16.684  0.0000E+00  0.1200E+01
     16.746  0.0000E+00  0.1200E+01
     16.808  0.0000E+00  0.1200E+01
     16.870  0.0000E+00  0.1200E+01
     16.932  0.0000E+00  0.1200E+01
     16.994  0.0000E+00  0.1200E+01
     17.057  0.0000E+00  0.1200E+01
     17.119  0.0000E+00  0.1200E+01
     17.181  0.0000E+00  0.1200E+01
     17.243  0.0000E+00  0.1200E+01
