   12   12  100    1
  0.1624061E+02  0.5616760E-09  0.4217100E-09  0.8227800E-09  0.1500000E-15
  1.000000000000000E-004
  CAR 
 bulk                                    
     92     70     60
 
  0.0000000E+00  0.0000000E+00  0.0000000E+00  0.5208333E-02
    1       -0.559790   1.000000
    2        1.271025   1.000000
    3        1.570331   1.000000
    4        2.828313   1.000000
    5        3.583148   1.000000
    6        4.102664   1.000000
    7        4.106928   1.000000
    8        4.167577   1.000000
    9        4.394857   1.000000
   10        4.544132   1.000000
   11        4.633799   1.000000
   12        4.656565   1.000000
   13        4.686457   1.000000
   14        4.783224   1.000000
   15        4.790408   1.000000
   16        4.919860   1.000000
   17        4.975899   1.000000
   18        4.989781   1.000000
   19        5.017898   1.000000
   20        5.212967   1.000000
   21        5.547986   1.000000
   22        5.879279   1.000000
   23        5.989479   1.000000
   24        5.995415   1.000000
   25        6.096571   1.000000
   26        6.158066   1.000000
   27        6.251442   1.000000
   28        6.285752   1.000000
   29        6.326550   1.000000
   30        6.375882   1.000000
   31        6.460065   1.000000
   32        6.575326   1.000000
   33        6.630375   1.000000
   34        6.684976   1.000000
   35        6.769414   1.000000
   36        6.854659   1.000000
   37        6.985962   1.000000
   38        7.046366   1.000000
   39        7.063909   1.000000
   40        7.266500   1.000000
   41        7.383821   1.000000
   42        7.643904   1.000000
   43        7.654426   1.000000
   44        7.955867   1.000000
   45        8.099097   1.000000
   46        8.308850   1.000000
   47        8.452694   0.065281
   48        9.135628   0.000000
   49        9.365848   0.000000
   50       10.129714   0.000000
   51       11.258322   0.000000
   52       12.049912   0.000000
   53       12.916246   0.000000
   54       13.144081   0.000000
   55       13.185967   0.000000
   56       13.367801   0.000000
   57       14.560888   0.000000
   58       14.752719   0.000000
   59       15.475632   0.000000
   60       15.477795   0.000000
 
  0.1666667E+00  0.0000000E+00  0.0000000E+00  0.1041667E-01
    1       -0.419137   1.000000
    2        1.328026   1.000000
    3        1.676072   1.000000
    4        2.548624   1.000000
    5        3.554999   1.000000
    6        4.098991   1.000000
    7        4.134134   1.000000
    8        4.136392   1.000000
    9        4.199628   1.000000
   10        4.565987   1.000000
   11        4.638018   1.000000
   12        4.656326   1.000000
   13        4.677169   1.000000
   14        4.686210   1.000000
   15        4.759162   1.000000
   16        4.940671   1.000000
   17        5.038920   1.000000
   18        5.045651   1.000000
   19        5.084347   1.000000
   20        5.338873   1.000000
   21        5.519402   1.000000
   22        5.736130   1.000000
   23        5.912825   1.000000
   24        5.965179   1.000000
   25        6.093597   1.000000
   26        6.099844   1.000000
   27        6.171679   1.000000
   28        6.314559   1.000000
   29        6.367550   1.000000
   30        6.410179   1.000000
   31        6.410532   1.000000
   32        6.549200   1.000000
   33        6.629024   1.000000
   34        6.636876   1.000000
   35        6.841176   1.000000
   36        6.860656   1.000000
   37        6.948976   1.000000
   38        7.008497   1.000000
   39        7.110890   1.000000
   40        7.164923   1.000000
   41        7.261107   1.000000
   42        7.458151   1.000000
   43        7.487638   1.000000
   44        7.598316   1.000000
   45        7.643996   1.000000
   46        7.917409   1.000000
   47        9.099719   0.000000
   48        9.657735   0.000000
   49       10.499848   0.000000
   50       10.910034   0.000000
   51       11.497250   0.000000
   52       12.042982   0.000000
   53       12.918718   0.000000
   54       13.087110   0.000000
   55       13.251692   0.000000
   56       13.296472   0.000000
   57       14.286446   0.000000
   58       14.494022   0.000000
   59       15.053101   0.000000
   60       15.222666   0.000000
 
  0.3333333E+00  0.0000000E+00  0.0000000E+00  0.1041667E-01
    1       -0.009596   1.000000
    2        1.232295   1.000000
    3        1.952474   1.000000
    4        2.161154   1.000000
    5        3.400656   1.000000
    6        3.601087   1.000000
    7        4.194068   1.000000
    8        4.217031   1.000000
    9        4.273267   1.000000
   10        4.494720   1.000000
   11        4.500391   1.000000
   12        4.517995   1.000000
   13        4.725663   1.000000
   14        4.754109   1.000000
   15        4.810134   1.000000
   16        5.043210   1.000000
   17        5.086336   1.000000
   18        5.133948   1.000000
   19        5.311020   1.000000
   20        5.353597   1.000000
   21        5.449534   1.000000
   22        5.670362   1.000000
   23        5.789625   1.000000
   24        5.885803   1.000000
   25        5.935351   1.000000
   26        5.969858   1.000000
   27        6.146686   1.000000
   28        6.152209   1.000000
   29        6.285440   1.000000
   30        6.339356   1.000000
   31        6.507001   1.000000
   32        6.533689   1.000000
   33        6.543046   1.000000
   34        6.725495   1.000000
   35        6.817499   1.000000
   36        6.852840   1.000000
   37        6.895038   1.000000
   38        6.954858   1.000000
   39        6.969758   1.000000
   40        7.020474   1.000000
   41        7.078113   1.000000
   42        7.094977   1.000000
   43        7.298736   1.000000
   44        7.344819   1.000000
   45        7.564836   1.000000
   46        7.644077   1.000000
   47       10.204950   0.000000
   48       10.830513   0.000000
   49       11.864200   0.000000
   50       11.919114   0.000000
   51       12.066897   0.000000
   52       12.306234   0.000000
   53       12.741487   0.000000
   54       12.827887   0.000000
   55       13.243145   0.000000
   56       13.562581   0.000000
   57       13.744409   0.000000
   58       14.265186   0.000000
   59       14.815618   0.000000
   60       15.067370   0.000000
 
  0.5000000E+00  0.0000000E+00  0.0000000E+00  0.5208333E-02
    1        0.614124   1.000000
    2        0.614946   1.000000
    3        2.178662   1.000000
    4        2.181576   1.000000
    5        3.258108   1.000000
    6        3.258681   1.000000
    7        4.308319   1.000000
    8        4.308770   1.000000
    9        4.367861   1.000000
   10        4.368407   1.000000
   11        4.381730   1.000000
   12        4.383003   1.000000
   13        4.759161   1.000000
   14        4.760291   1.000000
   15        5.000334   1.000000
   16        5.001657   1.000000
   17        5.196425   1.000000
   18        5.198407   1.000000
   19        5.354860   1.000000
   20        5.355865   1.000000
   21        5.536190   1.000000
   22        5.538096   1.000000
   23        5.663417   1.000000
   24        5.664331   1.000000
   25        6.005442   1.000000
   26        6.006317   1.000000
   27        6.137528   1.000000
   28        6.139598   1.000000
   29        6.317378   1.000000
   30        6.319423   1.000000
   31        6.440258   1.000000
   32        6.442245   1.000000
   33        6.533738   1.000000
   34        6.535257   1.000000
   35        6.765022   1.000000
   36        6.767097   1.000000
   37        6.859655   1.000000
   38        6.861177   1.000000
   39        6.995327   1.000000
   40        6.997912   1.000000
   41        7.097014   1.000000
   42        7.098631   1.000000
   43        7.204774   1.000000
   44        7.206158   1.000000
   45        7.627786   1.000000
   46        7.630049   1.000000
   47       11.478446   0.000000
   48       11.480269   0.000000
   49       11.486039   0.000000
   50       11.487100   0.000000
   51       12.615824   0.000000
   52       12.619728   0.000000
   53       12.967846   0.000000
   54       12.968819   0.000000
   55       13.839222   0.000000
   56       13.841947   0.000000
   57       13.995310   0.000000
   58       13.999056   0.000000
   59       14.725266   0.000000
   60       14.727818   0.000000
 
  0.0000000E+00  0.1250000E+00  0.0000000E+00  0.1041667E-01
    1       -0.414302   1.000000
    2        1.338738   1.000000
    3        1.669307   1.000000
    4        2.712421   1.000000
    5        3.672259   1.000000
    6        4.150760   1.000000
    7        4.194254   1.000000
    8        4.345683   1.000000
    9        4.470663   1.000000
   10        4.482215   1.000000
   11        4.532117   1.000000
   12        4.559711   1.000000
   13        4.738210   1.000000
   14        4.850536   1.000000
   15        4.928201   1.000000
   16        4.984758   1.000000
   17        4.985012   1.000000
   18        5.047652   1.000000
   19        5.106421   1.000000
   20        5.196359   1.000000
   21        5.485128   1.000000
   22        5.743252   1.000000
   23        5.820255   1.000000
   24        5.989989   1.000000
   25        6.029313   1.000000
   26        6.065556   1.000000
   27        6.150288   1.000000
   28        6.294193   1.000000
   29        6.448661   1.000000
   30        6.452879   1.000000
   31        6.495616   1.000000
   32        6.524869   1.000000
   33        6.572257   1.000000
   34        6.637326   1.000000
   35        6.725177   1.000000
   36        6.846260   1.000000
   37        6.965078   1.000000
   38        7.005771   1.000000
   39        7.039176   1.000000
   40        7.164257   1.000000
   41        7.347580   1.000000
   42        7.386057   1.000000
   43        7.474869   1.000000
   44        7.814922   1.000000
   45        8.049888   1.000000
   46        8.418395   0.541791
   47        8.623342   0.000000
   48        9.273632   0.000000
   49        9.627006   0.000000
   50       10.177843   0.000000
   51       11.262696   0.000000
   52       11.319081   0.000000
   53       11.680193   0.000000
   54       12.501124   0.000000
   55       13.641950   0.000000
   56       13.956565   0.000000
   57       14.539458   0.000000
   58       15.095363   0.000000
   59       15.197748   0.000000
   60       15.582194   0.000000
 
  0.1666667E+00  0.1250000E+00  0.0000000E+00  0.2083333E-01
    1       -0.275491   1.000000
    2        1.397034   1.000000
    3        1.770015   1.000000
    4        2.520301   1.000000
    5        3.657545   1.000000
    6        4.008363   1.000000
    7        4.170047   1.000000
    8        4.223886   1.000000
    9        4.452968   1.000000
   10        4.505152   1.000000
   11        4.581311   1.000000
   12        4.654126   1.000000
   13        4.672426   1.000000
   14        4.785265   1.000000
   15        4.806747   1.000000
   16        4.946731   1.000000
   17        5.086515   1.000000
   18        5.101486   1.000000
   19        5.138551   1.000000
   20        5.266190   1.000000
   21        5.503291   1.000000
   22        5.629904   1.000000
   23        5.859817   1.000000
   24        5.930638   1.000000
   25        5.948041   1.000000
   26        6.140419   1.000000
   27        6.185694   1.000000
   28        6.220938   1.000000
   29        6.288203   1.000000
   30        6.335537   1.000000
   31        6.453893   1.000000
   32        6.556761   1.000000
   33        6.587336   1.000000
   34        6.600261   1.000000
   35        6.774969   1.000000
   36        6.867011   1.000000
   37        6.926325   1.000000
   38        6.955287   1.000000
   39        6.967370   1.000000
   40        7.084098   1.000000
   41        7.199805   1.000000
   42        7.428997   1.000000
   43        7.469186   1.000000
   44        7.649332   1.000000
   45        7.801636   1.000000
   46        8.204134   1.000000
   47        8.575940   0.000000
   48        9.651413   0.000000
   49       10.776348   0.000000
   50       10.998132   0.000000
   51       11.441740   0.000000
   52       11.463547   0.000000
   53       11.806656   0.000000
   54       12.352937   0.000000
   55       13.013154   0.000000
   56       13.411511   0.000000
   57       14.820157   0.000000
   58       14.829315   0.000000
   59       14.918907   0.000000
   60       15.167915   0.000000
 
  0.3333333E+00  0.1250000E+00  0.0000000E+00  0.2083333E-01
    1        0.127687   1.000000
    2        1.322109   1.000000
    3        2.028889   1.000000
    4        2.205681   1.000000
    5        3.522319   1.000000
    6        3.689070   1.000000
    7        3.999779   1.000000
    8        4.300802   1.000000
    9        4.388175   1.000000
   10        4.483482   1.000000
   11        4.547757   1.000000
   12        4.629275   1.000000
   13        4.758032   1.000000
   14        4.799302   1.000000
   15        4.817419   1.000000
   16        5.014347   1.000000
   17        5.128327   1.000000
   18        5.147752   1.000000
   19        5.207569   1.000000
   20        5.318114   1.000000
   21        5.454669   1.000000
   22        5.597331   1.000000
   23        5.726052   1.000000
   24        5.819412   1.000000
   25        5.889523   1.000000
   26        5.970995   1.000000
   27        6.004205   1.000000
   28        6.081650   1.000000
   29        6.258957   1.000000
   30        6.269990   1.000000
   31        6.468659   1.000000
   32        6.535181   1.000000
   33        6.550650   1.000000
   34        6.699611   1.000000
   35        6.727512   1.000000
   36        6.766421   1.000000
   37        6.938007   1.000000
   38        6.953653   1.000000
   39        6.957323   1.000000
   40        7.062264   1.000000
   41        7.178232   1.000000
   42        7.278547   1.000000
   43        7.317753   1.000000
   44        7.325909   1.000000
   45        7.529571   1.000000
   46        7.653214   1.000000
   47        9.455485   0.000000
   48       10.934018   0.000000
   49       11.203134   0.000000
   50       11.849825   0.000000
   51       11.961847   0.000000
   52       12.017872   0.000000
   53       12.364445   0.000000
   54       12.386114   0.000000
   55       12.580621   0.000000
   56       13.366437   0.000000
   57       13.922275   0.000000
   58       14.137546   0.000000
   59       14.724457   0.000000
   60       15.059018   0.000000
 
  0.5000000E+00  0.1250000E+00  0.0000000E+00  0.1041667E-01
    1        0.736661   1.000000
    2        0.737472   1.000000
    3        2.228067   1.000000
    4        2.230868   1.000000
    5        3.381775   1.000000
    6        3.382288   1.000000
    7        4.158369   1.000000
    8        4.159123   1.000000
    9        4.406671   1.000000
   10        4.407301   1.000000
   11        4.562246   1.000000
   12        4.563624   1.000000
   13        4.804316   1.000000
   14        4.805280   1.000000
   15        5.018952   1.000000
   16        5.020266   1.000000
   17        5.189582   1.000000
   18        5.190949   1.000000
   19        5.358581   1.000000
   20        5.359452   1.000000
   21        5.366231   1.000000
   22        5.367439   1.000000
   23        5.679117   1.000000
   24        5.681088   1.000000
   25        5.825529   1.000000
   26        5.827152   1.000000
   27        6.141135   1.000000
   28        6.142063   1.000000
   29        6.181662   1.000000
   30        6.182409   1.000000
   31        6.419911   1.000000
   32        6.421297   1.000000
   33        6.713444   1.000000
   34        6.715592   1.000000
   35        6.770707   1.000000
   36        6.771849   1.000000
   37        6.850789   1.000000
   38        6.852313   1.000000
   39        7.057266   1.000000
   40        7.058904   1.000000
   41        7.116550   1.000000
   42        7.118099   1.000000
   43        7.167477   1.000000
   44        7.168369   1.000000
   45        7.579588   1.000000
   46        7.581535   1.000000
   47       10.408063   0.000000
   48       10.409371   0.000000
   49       11.602186   0.000000
   50       11.604786   0.000000
   51       12.400531   0.000000
   52       12.402585   0.000000
   53       12.657449   0.000000
   54       12.660096   0.000000
   55       13.487312   0.000000
   56       13.488159   0.000000
   57       13.614808   0.000000
   58       13.617255   0.000000
   59       14.783024   0.000000
   60       14.786219   0.000000
 
  0.0000000E+00  0.2500000E+00  0.0000000E+00  0.1041667E-01
    1        0.012210   1.000000
    2        1.520836   1.000000
    3        1.908201   1.000000
    4        2.478154   1.000000
    5        3.842386   1.000000
    6        4.106307   1.000000
    7        4.260508   1.000000
    8        4.329507   1.000000
    9        4.466071   1.000000
   10        4.666240   1.000000
   11        4.677268   1.000000
   12        4.732928   1.000000
   13        4.884337   1.000000
   14        4.973830   1.000000
   15        5.036668   1.000000
   16        5.048241   1.000000
   17        5.122441   1.000000
   18        5.129466   1.000000
   19        5.172995   1.000000
   20        5.288198   1.000000
   21        5.508269   1.000000
   22        5.542077   1.000000
   23        5.593131   1.000000
   24        5.884937   1.000000
   25        5.923389   1.000000
   26        5.947196   1.000000
   27        6.068770   1.000000
   28        6.100196   1.000000
   29        6.315869   1.000000
   30        6.379419   1.000000
   31        6.425027   1.000000
   32        6.496125   1.000000
   33        6.529094   1.000000
   34        6.633888   1.000000
   35        6.780185   1.000000
   36        6.800196   1.000000
   37        6.839305   1.000000
   38        6.846393   1.000000
   39        6.969134   1.000000
   40        6.998687   1.000000
   41        7.105058   1.000000
   42        7.149548   1.000000
   43        7.208653   1.000000
   44        7.419780   1.000000
   45        8.076467   1.000000
   46        8.388955   0.932250
   47        9.409501   0.000000
   48        9.627327   0.000000
   49        9.809288   0.000000
   50        9.814901   0.000000
   51       10.194371   0.000000
   52       10.369807   0.000000
   53       12.297791   0.000000
   54       12.423335   0.000000
   55       12.657290   0.000000
   56       13.449502   0.000000
   57       13.456024   0.000000
   58       14.025598   0.000000
   59       14.556096   0.000000
   60       14.833403   0.000000
 
  0.1666667E+00  0.2500000E+00  0.0000000E+00  0.2083333E-01
    1        0.144981   1.000000
    2        1.582383   1.000000
    3        1.994418   1.000000
    4        2.423028   1.000000
    5        3.872977   1.000000
    6        4.006389   1.000000
    7        4.267186   1.000000
    8        4.301235   1.000000
    9        4.358090   1.000000
   10        4.483726   1.000000
   11        4.698516   1.000000
   12        4.763509   1.000000
   13        4.840707   1.000000
   14        4.900088   1.000000
   15        4.940275   1.000000
   16        5.113937   1.000000
   17        5.123550   1.000000
   18        5.221008   1.000000
   19        5.222473   1.000000
   20        5.291772   1.000000
   21        5.424202   1.000000
   22        5.595481   1.000000
   23        5.614572   1.000000
   24        5.862593   1.000000
   25        5.872164   1.000000
   26        6.002110   1.000000
   27        6.005258   1.000000
   28        6.052870   1.000000
   29        6.108636   1.000000
   30        6.264407   1.000000
   31        6.362301   1.000000
   32        6.401891   1.000000
   33        6.533763   1.000000
   34        6.557784   1.000000
   35        6.702640   1.000000
   36        6.839775   1.000000
   37        6.854557   1.000000
   38        6.879861   1.000000
   39        6.945132   1.000000
   40        7.021081   1.000000
   41        7.055989   1.000000
   42        7.291989   1.000000
   43        7.441947   1.000000
   44        7.478801   1.000000
   45        7.610568   1.000000
   46        8.700094   0.000000
   47        8.736363   0.000000
   48        9.330141   0.000000
   49        9.925826   0.000000
   50       10.000431   0.000000
   51       11.018018   0.000000
   52       11.431372   0.000000
   53       12.000927   0.000000
   54       12.084080   0.000000
   55       12.532127   0.000000
   56       13.307145   0.000000
   57       13.360627   0.000000
   58       14.445756   0.000000
   59       14.756424   0.000000
   60       15.680387   0.000000
 
  0.3333333E+00  0.2500000E+00  0.0000000E+00  0.2083333E-01
    1        0.527112   1.000000
    2        1.566314   1.000000
    3        2.205231   1.000000
    4        2.294686   1.000000
    5        3.809987   1.000000
    6        3.849654   1.000000
    7        3.896716   1.000000
    8        4.186460   1.000000
    9        4.522905   1.000000
   10        4.567031   1.000000
   11        4.692138   1.000000
   12        4.694243   1.000000
   13        4.821415   1.000000
   14        4.905598   1.000000
   15        4.908598   1.000000
   16        5.007648   1.000000
   17        5.181062   1.000000
   18        5.210574   1.000000
   19        5.243787   1.000000
   20        5.267949   1.000000
   21        5.395759   1.000000
   22        5.530865   1.000000
   23        5.612233   1.000000
   24        5.670863   1.000000
   25        5.697138   1.000000
   26        5.910529   1.000000
   27        5.957667   1.000000
   28        5.986455   1.000000
   29        5.999609   1.000000
   30        6.157917   1.000000
   31        6.336009   1.000000
   32        6.381182   1.000000
   33        6.584143   1.000000
   34        6.596974   1.000000
   35        6.674226   1.000000
   36        6.690256   1.000000
   37        6.822808   1.000000
   38        6.997650   1.000000
   39        7.034188   1.000000
   40        7.065279   1.000000
   41        7.073184   1.000000
   42        7.195510   1.000000
   43        7.273545   1.000000
   44        7.505767   1.000000
   45        7.609734   1.000000
   46        8.020103   1.000000
   47        8.548079   0.000000
   48        9.626183   0.000000
   49       10.353128   0.000000
   50       10.442080   0.000000
   51       11.353955   0.000000
   52       11.390260   0.000000
   53       12.024285   0.000000
   54       12.997854   0.000000
   55       13.042685   0.000000
   56       13.367554   0.000000
   57       13.413159   0.000000
   58       14.272040   0.000000
   59       14.946199   0.000000
   60       16.395265   0.000000
 
  0.5000000E+00  0.2500000E+00  0.0000000E+00  0.1041667E-01
    1        1.086585   1.000000
    2        1.087338   1.000000
    3        2.338684   1.000000
    4        2.341064   1.000000
    5        3.680654   1.000000
    6        3.681079   1.000000
    7        3.965057   1.000000
    8        3.965927   1.000000
    9        4.596642   1.000000
   10        4.597277   1.000000
   11        4.710834   1.000000
   12        4.712429   1.000000
   13        4.883648   1.000000
   14        4.885241   1.000000
   15        5.011857   1.000000
   16        5.012679   1.000000
   17        5.211339   1.000000
   18        5.211913   1.000000
   19        5.225364   1.000000
   20        5.226682   1.000000
   21        5.364975   1.000000
   22        5.366678   1.000000
   23        5.481255   1.000000
   24        5.482733   1.000000
   25        5.845913   1.000000
   26        5.846884   1.000000
   27        5.909956   1.000000
   28        5.910786   1.000000
   29        6.048431   1.000000
   30        6.049030   1.000000
   31        6.479105   1.000000
   32        6.480779   1.000000
   33        6.573300   1.000000
   34        6.574694   1.000000
   35        6.641201   1.000000
   36        6.642137   1.000000
   37        6.850693   1.000000
   38        6.851456   1.000000
   39        7.053901   1.000000
   40        7.055331   1.000000
   41        7.127133   1.000000
   42        7.127332   1.000000
   43        7.355174   1.000000
   44        7.356213   1.000000
   45        7.649921   1.000000
   46        7.649976   1.000000
   47        9.087818   0.000000
   48        9.089009   0.000000
   49       10.792207   0.000000
   50       10.795062   0.000000
   51       11.068178   0.000000
   52       11.069722   0.000000
   53       12.660286   0.000000
   54       12.661186   0.000000
   55       13.625041   0.000000
   56       13.628230   0.000000
   57       14.260656   0.000000
   58       14.262030   0.000000
   59       15.319469   0.000000
   60       15.327552   0.000000
 
  0.0000000E+00  0.3750000E+00  0.0000000E+00  0.1041667E-01
    1        0.680877   1.000000
    2        1.761498   1.000000
    3        2.000036   1.000000
    4        2.236574   1.000000
    5        3.642512   1.000000
    6        4.006748   1.000000
    7        4.092359   1.000000
    8        4.409354   1.000000
    9        4.640284   1.000000
   10        4.686920   1.000000
   11        4.812624   1.000000
   12        4.921715   1.000000
   13        5.053653   1.000000
   14        5.089958   1.000000
   15        5.157620   1.000000
   16        5.196111   1.000000
   17        5.222956   1.000000
   18        5.232114   1.000000
   19        5.326158   1.000000
   20        5.417771   1.000000
   21        5.585439   1.000000
   22        5.644345   1.000000
   23        5.723982   1.000000
   24        5.763703   1.000000
   25        5.859795   1.000000
   26        5.890948   1.000000
   27        5.933599   1.000000
   28        5.991417   1.000000
   29        6.086150   1.000000
   30        6.246539   1.000000
   31        6.329104   1.000000
   32        6.370508   1.000000
   33        6.465431   1.000000
   34        6.475889   1.000000
   35        6.497377   1.000000
   36        6.554475   1.000000
   37        6.741719   1.000000
   38        6.894783   1.000000
   39        6.916969   1.000000
   40        6.941850   1.000000
   41        7.119567   1.000000
   42        7.149862   1.000000
   43        7.341127   1.000000
   44        7.463845   1.000000
   45        7.806767   1.000000
   46        8.110196   1.000000
   47        8.312083   1.000000
   48        8.366316   0.994767
   49       10.419824   0.000000
   50       10.484613   0.000000
   51       10.614196   0.000000
   52       10.854413   0.000000
   53       11.391736   0.000000
   54       12.309968   0.000000
   55       12.567075   0.000000
   56       12.822078   0.000000
   57       13.099160   0.000000
   58       13.465764   0.000000
   59       13.742537   0.000000
   60       13.899943   0.000000
 
  0.1666667E+00  0.3750000E+00  0.0000000E+00  0.2083333E-01
    1        0.801658   1.000000
    2        1.825970   1.000000
    3        2.076475   1.000000
    4        2.264173   1.000000
    5        3.711423   1.000000
    6        4.024933   1.000000
    7        4.061280   1.000000
    8        4.292057   1.000000
    9        4.489296   1.000000
   10        4.706142   1.000000
   11        4.799887   1.000000
   12        4.890259   1.000000
   13        5.063107   1.000000
   14        5.065466   1.000000
   15        5.103536   1.000000
   16        5.170151   1.000000
   17        5.189590   1.000000
   18        5.268767   1.000000
   19        5.340210   1.000000
   20        5.429941   1.000000
   21        5.533264   1.000000
   22        5.557923   1.000000
   23        5.692817   1.000000
   24        5.750997   1.000000
   25        5.808345   1.000000
   26        5.816304   1.000000
   27        5.958721   1.000000
   28        5.963627   1.000000
   29        6.056478   1.000000
   30        6.145774   1.000000
   31        6.258997   1.000000
   32        6.353633   1.000000
   33        6.372666   1.000000
   34        6.399801   1.000000
   35        6.605915   1.000000
   36        6.652772   1.000000
   37        6.752049   1.000000
   38        6.774186   1.000000
   39        6.900205   1.000000
   40        6.963202   1.000000
   41        7.079297   1.000000
   42        7.171732   1.000000
   43        7.314648   1.000000
   44        7.505187   1.000000
   45        7.511194   1.000000
   46        8.332784   0.999983
   47        8.468371   0.012194
   48        8.593817   0.000000
   49        9.570547   0.000000
   50        9.676149   0.000000
   51       10.829481   0.000000
   52       11.215752   0.000000
   53       11.974596   0.000000
   54       12.247480   0.000000
   55       12.432245   0.000000
   56       13.327985   0.000000
   57       13.649594   0.000000
   58       13.882659   0.000000
   59       14.278484   0.000000
   60       14.944290   0.000000
 
  0.3333333E+00  0.3750000E+00  0.0000000E+00  0.2083333E-01
    1        1.141339   1.000000
    2        1.888347   1.000000
    3        2.259660   1.000000
    4        2.314714   1.000000
    5        3.794688   1.000000
    6        3.820929   1.000000
    7        3.993619   1.000000
    8        4.005181   1.000000
    9        4.613508   1.000000
   10        4.747539   1.000000
   11        4.768281   1.000000
   12        4.822862   1.000000
   13        4.908099   1.000000
   14        5.066128   1.000000
   15        5.094895   1.000000
   16        5.128562   1.000000
   17        5.221202   1.000000
   18        5.264979   1.000000
   19        5.333417   1.000000
   20        5.365508   1.000000
   21        5.423670   1.000000
   22        5.464829   1.000000
   23        5.493036   1.000000
   24        5.623988   1.000000
   25        5.682307   1.000000
   26        5.822352   1.000000
   27        5.861139   1.000000
   28        5.916516   1.000000
   29        5.965067   1.000000
   30        6.114614   1.000000
   31        6.116165   1.000000
   32        6.343791   1.000000
   33        6.372056   1.000000
   34        6.463144   1.000000