       N       E                     dE             d eps       ncg     rms          rms(c)
DAV:   1     0.508610784123E+03    0.50861E+03   -0.39741E+04  8400   0.127E+03
DAV:   2    -0.426541549044E+02   -0.55126E+03   -0.52319E+03  9240   0.287E+02
DAV:   3    -0.596769685992E+02   -0.17023E+02   -0.16700E+02  9888   0.516E+01
DAV:   4    -0.598666914287E+02   -0.18972E+00   -0.18964E+00  9072   0.545E+00
DAV:   5    -0.598699574193E+02   -0.32660E-02   -0.32658E-02  9888   0.750E-01
DAV:   6    -0.598700535210E+02   -0.96102E-04   -0.96102E-04  9252   0.133E-01
DAV:   7    -0.598700568789E+02   -0.33579E-05   -0.33578E-05  9876   0.250E-02    0.180E+01
RMM:   8    -0.592388488953E+02    0.63121E+00   -0.33798E-01  8400   0.250E+00    0.153E+01
RMM:   9    -0.584099992815E+02    0.82885E+00   -0.34630E+00  8400   0.810E+00    0.694E+00
RMM:  10    -0.581431009834E+02    0.26690E+00   -0.28313E-01  8400   0.130E+00    0.203E+00
RMM:  11    -0.581059787074E+02    0.37122E-01   -0.14060E-01  8400   0.150E+00    0.135E+00
RMM:  12    -0.580959581535E+02    0.10021E-01   -0.32461E-02  8400   0.498E-01    0.884E-01
RMM:  13    -0.580941226425E+02    0.18355E-02   -0.79130E-03  8400   0.294E-01    0.516E-01
RMM:  14    -0.580924369510E+02    0.16857E-02   -0.38548E-03  8400   0.195E-01    0.202E-01
RMM:  15    -0.580925504497E+02   -0.11350E-03   -0.57048E-04  8400   0.949E-02    0.836E-02
RMM:  16    -0.580924680431E+02    0.82407E-04   -0.38343E-04  8400   0.756E-02    0.124E-01
RMM:  17    -0.580924221306E+02    0.45913E-04   -0.12188E-04  8400   0.321E-02    0.131E-02
RMM:  18    -0.580924216793E+02    0.45126E-06   -0.16297E-05  8400   0.166E-02    0.208E-02
RMM:  19    -0.580924189428E+02    0.27365E-05   -0.16043E-06  4678   0.432E-03    0.129E-02
RMM:  20    -0.580924161015E+02    0.28413E-05   -0.17317E-06  4996   0.404E-03    0.233E-03
RMM:  21    -0.580924158208E+02    0.28070E-06   -0.24584E-07  4488   0.191E-03
   1 F= -.58092416E+02 E0= -.58091132E+02  d E =-.580924E+02
       N       E                     dE             d eps       ncg     rms          rms(c)
DAV:   1    -0.593811251202E+02   -0.12887E+01   -0.16646E+01  8436   0.227E+01    0.721E+00
RMM:   2    -0.587443700587E+02    0.63676E+00   -0.50078E-01  8400   0.336E+00    0.481E+00
RMM:   3    -0.582862521641E+02    0.45812E+00   -0.16046E+00  8400   0.507E+00    0.147E+00
RMM:   4    -0.582699047703E+02    0.16347E-01   -0.18572E-02  8400   0.355E-01    0.117E+00
RMM:   5    -0.582558172006E+02    0.14088E-01   -0.44879E-02  8400   0.530E-01    0.491E-01
RMM:   6    -0.582532549117E+02    0.25623E-02   -0.14984E-02  8400   0.477E-01    0.429E-01
RMM:   7    -0.582530933924E+02    0.16152E-03   -0.12461E-02  8400   0.442E-01    0.220E-01
RMM:   8    -0.582524015078E+02    0.69188E-03   -0.35940E-03  8400   0.243E-01    0.130E-01
RMM:   9    -0.582523830286E+02    0.18479E-04   -0.22072E-04  8400   0.405E-02    0.106E-01
RMM:  10    -0.582523134257E+02    0.69603E-04   -0.46696E-04  8400   0.852E-02    0.122E-02
RMM:  11    -0.582523104735E+02    0.29523E-05   -0.13396E-05  8395   0.105E-02    0.116E-02
RMM:  12    -0.582523128526E+02   -0.23791E-05   -0.42839E-06  7181   0.700E-03    0.291E-03
RMM:  13    -0.582523127137E+02    0.13894E-06   -0.12516E-06  4731   0.369E-03
   2 F= -.58252313E+02 E0= -.58250925E+02  d E =-.159897E+00
       N       E                     dE             d eps       ncg     rms          rms(c)
DAV:   1    -0.586005122424E+02   -0.34820E+00   -0.47714E+00  8448   0.121E+01    0.392E+00
RMM:   2    -0.584102962041E+02    0.19022E+00   -0.15239E-01  8400   0.181E+00    0.258E+00
RMM:   3    -0.582805814834E+02    0.12971E+00   -0.47077E-01  8400   0.274E+00    0.749E-01
RMM:   4    -0.582755139742E+02    0.50675E-02   -0.56652E-03  8400   0.197E-01    0.592E-01
RMM:   5    -0.582713279523E+02    0.41860E-02   -0.12638E-02  8400   0.283E-01    0.255E-01
RMM:   6    -0.582706639778E+02    0.66397E-03   -0.38609E-03  8400   0.243E-01    0.221E-01
RMM:   7    -0.582706532542E+02    0.10724E-04   -0.39161E-03  8400   0.246E-01    0.120E-01
RMM:   8    -0.582704303883E+02    0.22287E-03   -0.16078E-03  8400   0.162E-01    0.822E-02
RMM:   9    -0.582704060919E+02    0.24296E-04   -0.78251E-05  8400   0.308E-02    0.572E-02
RMM:  10    -0.582703660184E+02    0.40074E-04   -0.16972E-04  8400   0.502E-02    0.634E-03
RMM:  11    -0.582703658578E+02    0.16057E-06   -0.28928E-06  5686   0.517E-03
   3 F= -.58270366E+02 E0= -.58268888E+02  d E =-.177950E+00
       N       E                     dE             d eps       ncg     rms          rms(c)
DAV:   1    -0.582722029609E+02   -0.18369E-02   -0.24430E-02  9108   0.862E-01    0.280E-01
RMM:   2    -0.582712293473E+02    0.97361E-03   -0.79966E-04  8400   0.128E-01    0.184E-01
RMM:   3    -0.582705685167E+02    0.66083E-03   -0.23875E-03  8400   0.195E-01    0.509E-02
RMM:   4    -0.582705495478E+02    0.18969E-04   -0.29267E-05  8400   0.140E-02    0.414E-02
RMM:   5    -0.582705364678E+02    0.13080E-04   -0.83029E-05  8400   0.218E-02    0.168E-02
RMM:   6    -0.582705355767E+02    0.89105E-06   -0.32718E-05  8389   0.224E-02    0.179E-02
RMM:   7    -0.582705376086E+02   -0.20319E-05   -0.27698E-05  8400   0.211E-02    0.756E-03
RMM:   8    -0.582705373640E+02    0.24458E-06   -0.59896E-06  7726   0.101E-02
   4 F= -.58270537E+02 E0= -.58269067E+02  d E =-.178122E+00
       N       E                     dE             d eps       ncg     rms          rms(c)
DAV:   1    -0.582716325566E+02   -0.10949E-02   -0.39417E-02  9024   0.772E-01    0.993E-02
RMM:   2    -0.582715929693E+02    0.39587E-04   -0.41840E-04  8400   0.916E-02    0.856E-02
RMM:   3    -0.582714056437E+02    0.18733E-03   -0.11853E-04  8400   0.381E-02    0.391E-02
RMM:   4    -0.582713602517E+02    0.45392E-04   -0.75985E-05  8400   0.281E-02    0.116E-02
RMM:   5    -0.582713596599E+02    0.59175E-06   -0.36247E-06  5793   0.565E-03
   5 F= -.58271360E+02 E0= -.58269898E+02  d E =-.822296E-03
       N       E                     dE             d eps       ncg     rms          rms(c)
DAV:   1    -0.582756640083E+02   -0.43038E-02   -0.35525E-01  9084   0.232E+00    0.300E-01
RMM:   2    -0.582752952129E+02    0.36880E-03   -0.37641E-03  8400   0.275E-01    0.258E-01
RMM:   3    -0.582735612088E+02    0.17340E-02   -0.11121E-03  8400   0.116E-01    0.117E-01
RMM:   4    -0.582731557934E+02    0.40542E-03   -0.68586E-04  8400   0.841E-02    0.367E-02
RMM:   5    -0.582731505261E+02    0.52673E-05   -0.35870E-05  8399   0.171E-02    0.351E-02
RMM:   6    -0.582731457097E+02    0.48164E-05   -0.23034E-05  8400   0.150E-02    0.189E-02
RMM:   7    -0.582731441331E+02    0.15766E-05   -0.59142E-06  7090   0.761E-03    0.147E-02
RMM:   8    -0.582731438663E+02    0.26673E-06   -0.11027E-06  4505   0.424E-03
   6 F= -.58273144E+02 E0= -.58271711E+02  d E =-.260650E-02
       N       E                     dE             d eps       ncg     rms          rms(c)
DAV:   1    -0.582836584078E+02   -0.10514E-01   -0.14228E+00  9036   0.464E+00    0.597E-01
RMM:   2    -0.582822420962E+02    0.14163E-02   -0.15121E-02  8400   0.550E-01    0.514E-01
RMM:   3    -0.582754680819E+02    0.67740E-02   -0.42870E-03  8400   0.229E-01    0.236E-01
RMM:   4    -0.582738037608E+02    0.16643E-02   -0.27895E-03  8400   0.170E-01    0.711E-02
RMM:   5    -0.582737830562E+02    0.20705E-04   -0.14319E-04  8412   0.341E-02    0.685E-02
RMM:   6    -0.582737629035E+02    0.20153E-04   -0.86060E-05  8400   0.285E-02    0.374E-02
RMM:   7    -0.582737558277E+02    0.70757E-05   -0.25317E-05  8400   0.155E-02    0.279E-02
RMM:   8    -0.582737548136E+02    0.10141E-05   -0.47315E-06  7034   0.797E-03    0.141E-02
RMM:   9    -0.582737549801E+02   -0.16647E-06   -0.12121E-06  4563   0.435E-03
   7 F= -.58273755E+02 E0= -.58272438E+02  d E =-.321762E-02
       N       E                     dE             d eps       ncg     rms          rms(c)
DAV:   1    -0.582747013397E+02   -0.94653E-03   -0.10844E-01  9000   0.128E+00    0.166E-01
RMM:   2    -0.582745909183E+02    0.11042E-03   -0.11466E-03  8400   0.152E-01    0.143E-01
RMM:   3    -0.582740660996E+02    0.52482E-03   -0.33314E-04  8400   0.638E-02    0.650E-02
RMM:   4    -0.582739400301E+02    0.12607E-03   -0.21016E-04  8400   0.466E-02    0.189E-02
RMM:   5    -0.582739382695E+02    0.17607E-05   -0.10763E-05  7581   0.939E-03    0.183E-02
RMM:   6    -0.582739364764E+02    0.17931E-05   -0.62033E-06  8105   0.772E-03    0.101E-02
RMM:   7    -0.582739358573E+02    0.61908E-06   -0.16278E-06  4536   0.422E-03
   8 F= -.58273936E+02 E0= -.58272556E+02  d E =-.339849E-02
       N       E                     dE             d eps       ncg     rms          rms(c)
DAV:   1    -0.582751413018E+02   -0.12048E-02   -0.19956E-01  8520   0.160E+00    0.181E-01
RMM:   2    -0.582750233578E+02    0.11794E-03   -0.26567E-03  8400   0.232E-01    0.131E-01
RMM:   3    -0.582747099996E+02    0.31336E-03   -0.76032E-04  8400   0.108E-01    0.644E-02
RMM:   4    -0.582746581069E+02    0.51893E-04   -0.51833E-05  8402   0.254E-02    0.494E-02
RMM:   5    -0.582745845304E+02    0.73577E-04   -0.11928E-04  8400   0.335E-02    0.128E-02
RMM:   6    -0.582745826736E+02    0.18568E-05   -0.12122E-05  8198   0.125E-02    0.122E-02
RMM:   7    -0.582745815108E+02    0.11628E-05   -0.21433E-06  4739   0.489E-03    0.812E-03
RMM:   8    -0.582745802035E+02    0.13073E-05   -0.19215E-06  4545   0.517E-03    0.442E-03
RMM:   9    -0.582745801123E+02    0.91198E-07   -0.58624E-07  4429   0.327E-03
   9 F= -.58274580E+02 E0= -.58273238E+02  d E =-.644255E-03
       N       E                     dE             d eps       ncg     rms          rms(c)
DAV:   1    -0.582789293697E+02   -0.43492E-02   -0.14420E+00  8604   0.430E+00    0.481E-01
RMM:   2    -0.582781218704E+02    0.80750E-03   -0.19200E-02  8400   0.626E-01    0.349E-01
RMM:   3    -0.582758529843E+02    0.22689E-02   -0.55035E-03  8400   0.290E-01    0.171E-01
RMM:   4    -0.582754874061E+02    0.36558E-03   -0.38190E-04  8402   0.690E-02    0.131E-01
RMM:   5    -0.582749868812E+02    0.50052E-03   -0.87010E-04  8400   0.904E-02    0.352E-02
RMM:   6    -0.582749748361E+02    0.12045E-04   -0.95621E-05  8400   0.352E-02    0.338E-02
RMM:   7    -0.582749700077E+02    0.48284E-05   -0.18211E-05  8400   0.132E-02    0.234E-02
RMM:   8    -0.582749661027E+02    0.39050E-05   -0.16553E-05  8400   0.152E-02    0.128E-02
RMM:   9    -0.582749653776E+02    0.72503E-06   -0.26979E-06  4945   0.638E-03
  10 F= -.58274965E+02 E0= -.58273814E+02  d E =-.102952E-02
       N       E                     dE             d eps       ncg     rms          rms(c)
DAV:   1    -0.582753237696E+02   -0.35767E-03   -0.10481E-01  8520   0.116E+00    0.129E-01
RMM:   2    -0.582752651856E+02    0.58584E-04   -0.13865E-03  8400   0.168E-01    0.938E-02
RMM:   3    -0.582751023610E+02    0.16282E-03   -0.38942E-04  8400   0.771E-02    0.466E-02
RMM:   4    -0.582750764312E+02    0.25930E-04   -0.28009E-05  8402   0.187E-02    0.357E-02
RMM:   5    -0.582750455724E+02    0.30859E-04   -0.62928E-05  8400   0.244E-02    0.939E-03
RMM:   6    -0.582750450699E+02    0.50251E-06   -0.63406E-06  7702   0.900E-03
  11 F= -.58275045E+02 E0= -.58273836E+02  d E =-.110921E-02
       N       E                     dE             d eps       ncg     rms          rms(c)
DAV:   1    -0.582795833673E+02   -0.45378E-02   -0.26651E-01  8424   0.208E+00    0.456E-01
RMM:   2    -0.582773627991E+02    0.22206E-02   -0.50070E-03  8400   0.313E-01    0.301E-01
RMM:   3    -0.582756242064E+02    0.17386E-02   -0.60787E-03  8400   0.312E-01    0.927E-02
RMM:   4    -0.582755799783E+02    0.44228E-04   -0.10717E-04  8400   0.302E-02    0.816E-02
RMM:   5    -0.582754855496E+02    0.94429E-04   -0.38782E-04  8400   0.513E-02    0.364E-02
RMM:   6    -0.582754633920E+02    0.22158E-04   -0.11880E-04  8400   0.442E-02    0.272E-02
RMM:   7    -0.582754630630E+02    0.32900E-06   -0.30414E-05  8400   0.191E-02    0.128E-02
RMM:   8    -0.582754671959E+02   -0.41329E-05   -0.41763E-06  6285   0.594E-03    0.832E-03
RMM:   9    -0.582754669454E+02    0.25050E-06   -0.14205E-06  4664   0.401E-03
  12 F= -.58275467E+02 E0= -.58274327E+02  d E =-.421876E-03
       N       E                     dE             d eps       ncg     rms          rms(c)
DAV:   1    -0.582754683082E+02   -0.11123E-05   -0.76380E-06  9024   0.101E-02    0.215E-03
RMM:   2    -0.582754682379E+02    0.70277E-07   -0.10629E-07  4065   0.151E-03    0.165E-03
RMM:   3    -0.582754681026E+02    0.13528E-06   -0.96966E-08  3722   0.123E-03    0.105E-03
RMM:   4    -0.582754680199E+02    0.82698E-07   -0.11848E-09   328   0.475E-04    0.832E-04
RMM:   5    -0.582754677295E+02    0.29040E-06   -0.47079E-09   389   0.782E-04
  13 F= -.58275468E+02 E0= -.58274327E+02  d E =-.422660E-03
       N       E                     dE             d eps       ncg     rms          rms(c)
DAV:   1    -0.582754678352E+02    0.18469E-06   -0.53536E-06  8388   0.926E-03    0.204E-03
RMM:   2    -0.582754677755E+02    0.59689E-07   -0.84470E-08  3921   0.138E-03    0.134E-03
RMM:   3    -0.582754677318E+02    0.43755E-07   -0.10634E-07  3703   0.134E-03    0.488E-04
RMM:   4    -0.582754677459E+02   -0.14156E-07   -0.30941E-10    84   0.406E-04    0.430E-04
RMM:   5    -0.582754678578E+02   -0.11184E-06   -0.22963E-09   225   0.530E-04
  14 F= -.58275468E+02 E0= -.58274328E+02  d E =-.422788E-03
       N       E                     dE             d eps       ncg     rms          rms(c)
DAV:   1    -0.582755600166E+02   -0.92271E-04   -0.35011E-02  8424   0.634E-01    0.248E-02
RMM:   2    -0.582755948123E+02   -0.34796E-04   -0.40353E-04  8400   0.922E-02    0.180E-02
RMM:   3    -0.582755932147E+02    0.15975E-05   -0.22084E-05  8421   0.170E-02    0.147E-02
RMM:   4    -0.582755882079E+02    0.50068E-05   -0.61536E-06  7994   0.987E-03    0.756E-03
RMM:   5    -0.582755871507E+02    0.10573E-05   -0.13744E-06  4500   0.416E-03    0.386E-03
RMM:   6    -0.582755872194E+02   -0.68718E-07   -0.10672E-06  4404   0.381E-03
  15 F= -.58275587E+02 E0= -.58274443E+02  d E =-.119362E-03
       N       E                     dE             d eps       ncg     rms          rms(c)
DAV:   1    -0.582755553551E+02    0.31796E-04   -0.31497E-01  8400   0.190E+00    0.747E-02
RMM:   2    -0.582758685223E+02   -0.31317E-03   -0.36301E-03  8400   0.276E-01    0.539E-02
RMM:   3    -0.582758545316E+02    0.13991E-04   -0.20011E-04  8623   0.512E-02    0.438E-02
RMM:   4    -0.582758097752E+02    0.44756E-04   -0.54704E-05  8400   0.293E-02    0.227E-02
RMM:   5    -0.582757986649E+02    0.11110E-04   -0.13669E-05  8399   0.122E-02    0.116E-02
RMM:   6    -0.582757973397E+02    0.13252E-05   -0.85480E-06  8377   0.952E-03    0.583E-03
RMM:   7    -0.582757975434E+02   -0.20374E-06   -0.56253E-07  4509   0.263E-03
  16 F= -.58275798E+02 E0= -.58274641E+02  d E =-.329686E-03
