bulk                                    
           1
     5.616760    0.000000    0.000000
     0.000000    4.217100    0.000000
     0.000000    0.000000    8.227800
   In   Pd
   4   8
Direct configuration=     1
   0.82220000  0.25000000  0.39890000
   0.17780000  0.75000000  0.60109997
   0.67780000  0.75000000  0.89890003
   0.32220000  0.25000000  0.10110000
   0.83999997  0.25000000  0.07230000
   0.16000003  0.75000000  0.92769998
   0.66000003  0.75000000  0.57230002
   0.33999997  0.25000000  0.42769998
   0.93290001  0.25000000  0.73180002
   0.06709999  0.75000000  0.26819998
   0.56709999  0.75000000  0.23180002
   0.43290001  0.25000000  0.76819998
bulk                                    
           1
     5.673311    0.000000    0.000000
     0.000000    4.256897    0.000000
     0.000000    0.000000    8.313644
   In   Pd
   4   8
Direct configuration=     2
   0.82220000  0.25000000  0.39890000
   0.17770378  0.75000000  0.60087571
   0.67770378  0.75000000  0.89912429
   0.32229622  0.25000000  0.10087574
   0.84005695  0.25000000  0.07218438
   0.15994305  0.75000000  0.92781561
   0.65994306  0.75000000  0.57218439
   0.34005694  0.25000000  0.42781561
   0.93292313  0.25000000  0.73173113
   0.06707687  0.75000000  0.26826886
   0.56707688  0.75000000  0.23173114
   0.43292312  0.25000000  0.76826886
bulk                                    
           1
     5.703686    0.000000    0.000000
     0.000000    4.278273    0.000000
     0.000000    0.000000    8.359752
   In   Pd
   4   8
Direct configuration=     3
   0.82220000  0.25000000  0.39890000
   0.17765261  0.75000000  0.60075650
   0.67765261  0.75000000  0.89924350
   0.32234739  0.25000000  0.10075653
   0.84008724  0.25000000  0.07212292
   0.15991276  0.75000000  0.92787707
   0.65991277  0.75000000  0.57212293
   0.34008723  0.25000000  0.42787708
   0.93293542  0.25000000  0.73169452
   0.06706458  0.75000000  0.26830548
   0.56706460  0.75000000  0.23169453
   0.43293541  0.25000000  0.76830547
bulk                                    
           1
     5.701514    0.000000    0.000000
     0.000000    4.276745    0.000000
     0.000000    0.000000    8.356456
   In   Pd
   4   8
Direct configuration=     4
   0.82220000  0.25000000  0.39890000
   0.17765625  0.75000000  0.60076498
   0.67765625  0.75000000  0.89923502
   0.32234375  0.25000000  0.10076501
   0.84008509  0.25000000  0.07212729
   0.15991491  0.75000000  0.92787270
   0.65991492  0.75000000  0.57212730
   0.34008508  0.25000000  0.42787271
   0.93293454  0.25000000  0.73169712
   0.06706545  0.75000000  0.26830288
   0.56706547  0.75000000  0.23169713
   0.43293453  0.25000000  0.76830287
bulk                                    
           1
     5.704004    0.000000    0.000019
     0.000000    4.273638    0.000000
     0.000028    0.000000    8.358820
   In   Pd
   4   8
Direct configuration=     5
   0.82220000  0.25000000  0.39890000
   0.17767816  0.75000000  0.60068092
   0.67768348  0.75000000  0.89931326
   0.32231789  0.25000000  0.10067971
   0.84015385  0.25000000  0.07207672
   0.15985122  0.75000000  0.92790409
   0.65985898  0.75000000  0.57208914
   0.34014570  0.25000000  0.42790463
   0.93293579  0.25000000  0.73160146
   0.06707083  0.75000000  0.26838565
   0.56705720  0.75000000  0.23160927
   0.43294017  0.25000000  0.76838577
bulk                                    
           1
     5.711474    0.000000    0.000077
     0.000000    4.264316    0.000000
     0.000113    0.000000    8.365912
   In   Pd
   4   8
Direct configuration=     6
   0.82220000  0.25000000  0.39890000
   0.17774388  0.75000000  0.60042880
   0.67776515  0.75000000  0.89954791
   0.32224034  0.25000000  0.10042391
   0.84036004  0.25000000  0.07192506
   0.15966021  0.75000000  0.92799825
   0.65969122  0.75000000  0.57197470
   0.34032750  0.25000000  0.42800037
   0.93293953  0.25000000  0.73131457
   0.06708693  0.75000000  0.26863389
   0.56703239  0.75000000  0.23134573
   0.43295707  0.25000000  0.76863442
bulk                                    
           1
     5.726414    0.000000    0.000192
     0.000000    4.245673    0.000000
     0.000282    0.000000    8.380096
   In   Pd
   4   8
Direct configuration=     7
   0.82220000  0.25000000  0.39890000
   0.17787516  0.75000000  0.59992500
   0.67792827  0.75000000  0.90001680
   0.32208544  0.25000000  0.09991274
   0.84077188  0.25000000  0.07162200
   0.15927868  0.75000000  0.92818640
   0.65935615  0.75000000  0.57174601
   0.34069061  0.25000000  0.42819168
   0.93294702  0.25000000  0.73074128
   0.06711910  0.75000000  0.26912994
   0.56698284  0.75000000  0.23081911
   0.43299083  0.25000000  0.76913129
bulk                                    
           1
     5.722289    0.000000    0.000160
     0.000000    4.250820    0.000000
     0.000235    0.000000    8.376180
   In   Pd
   4   8
Direct configuration=     8
   0.82220000  0.25000000  0.39890000
   0.17783900  0.75000000  0.60006386
   0.67788336  0.75000000  0.89988757
   0.32212809  0.25000000  0.10005363
   0.84065847  0.25000000  0.07170553
   0.15938374  0.75000000  0.92813454
   0.65944841  0.75000000  0.57180904
   0.34059063  0.25000000  0.42813895
   0.93294495  0.25000000  0.73089929
   0.06711025  0.75000000  0.26899322
   0.56699648  0.75000000  0.23096426
   0.43298154  0.25000000  0.76899435
bulk                                    
           1
     5.723706    0.000000    0.000305
     0.000000    4.248861    0.000000
     0.000446    0.000000    8.382894
   In   Pd
   4   8
Direct configuration=     9
   0.82220000  0.25000000  0.39890000
   0.17797360  0.75000000  0.60014361
   0.67801478  0.75000000  0.89978253
   0.32198352  0.25000000  0.10011491
   0.84106879  0.25000000  0.07172434
   0.15900344  0.75000000  0.92799936
   0.65912445  0.75000000  0.57187622
   0.34100026  0.25000000  0.42801275
   0.93296940  0.25000000  0.73068001
   0.06712157  0.75000000  0.26910570
   0.56692637  0.75000000  0.23081499
   0.43302336  0.25000000  0.76912444
bulk                                    
           1
     5.727512    0.000000    0.000693
     0.000000    4.243597    0.000000
     0.001014    0.000000    8.400929
   In   Pd
   4   8
Direct configuration=    10
   0.82220000  0.25000000  0.39890000
   0.17833506  0.75000000  0.60035767
   0.67836773  0.75000000  0.89950059
   0.32159529  0.25000000  0.10027940
   0.84217070  0.25000000  0.07177482
   0.15798216  0.75000000  0.92763655
   0.65825446  0.75000000  0.57205657
   0.34210033  0.25000000  0.42767400
   0.93303508  0.25000000  0.73009147
   0.06715196  0.75000000  0.26940761
   0.56673813  0.75000000  0.23041436
   0.43313566  0.25000000  0.76947360
bulk                                    
           1
     5.726483    0.000000    0.000588
     0.000000    4.245020    0.000000
     0.000860    0.000000    8.396054
   In   Pd
   4   8
Direct configuration=    11
   0.82220000  0.25000000  0.39890000
   0.17823742  0.75000000  0.60029993
   0.67827237  0.75000000  0.89957665
   0.32170018  0.25000000  0.10023502
   0.84187301  0.25000000  0.07176122
   0.15825806  0.75000000  0.92773441
   0.65848950  0.75000000  0.57200791
   0.34180312  0.25000000  0.42776540
   0.93301732  0.25000000  0.73025023
   0.06714376  0.75000000  0.26932617
   0.56678897  0.75000000  0.23052243
   0.43310533  0.25000000  0.76937942
bulk                                    
           1
     5.722944    0.000000    0.000936
     0.000000    4.240447    0.000000
     0.001370    0.000000    8.395113
   In   Pd
   4   8
Direct configuration=    12
   0.82220000  0.25000000  0.39890000
   0.17837314  0.75000000  0.60037247
   0.67835322  0.75000000  0.89943893
   0.32162791  0.25000000  0.10030395
   0.84227751  0.25000000  0.07182819
   0.15787230  0.75000000  0.92755782
   0.65812795  0.75000000  0.57210025
   0.34226527  0.25000000  0.42761573
   0.93293825  0.25000000  0.73004354
   0.06722679  0.75000000  0.26942431
   0.56686408  0.75000000  0.23038168
   0.43309026  0.25000000  0.76949247
bulk                                    
           1
     5.722963    0.000000    0.000934
     0.000000    4.240473    0.000000
     0.001367    0.000000    8.395118
   In   Pd
   4   8
Direct configuration=    13
   0.82220000  0.25000000  0.39890000
   0.17837238  0.75000000  0.60037207
   0.67835277  0.75000000  0.89943970
   0.32162831  0.25000000  0.10030356
   0.84227523  0.25000000  0.07182781
   0.15787447  0.75000000  0.92755882
   0.65812999  0.75000000  0.57209973
   0.34226267  0.25000000  0.42761657
   0.93293869  0.25000000  0.73004470
   0.06722633  0.75000000  0.26942376
   0.56686366  0.75000000  0.23038247
   0.43309035  0.25000000  0.76949184
bulk                                    
           1
     5.722947    0.000000    0.000935
     0.000000    4.240452    0.000000
     0.001370    0.000000    8.395114
   In   Pd
   4   8
Direct configuration=    14
   0.82220000  0.25000000  0.39890000
   0.17837300  0.75000000  0.60037239
   0.67835313  0.75000000  0.89943908
   0.32162799  0.25000000  0.10030387
   0.84227707  0.25000000  0.07182811
   0.15787272  0.75000000  0.92755802
   0.65812835  0.75000000  0.57210014
   0.34226477  0.25000000  0.42761590
   0.93293833  0.25000000  0.73004376
   0.06722670  0.75000000  0.26942420
   0.56686400  0.75000000  0.23038184
   0.43309028  0.25000000  0.76949235
bulk                                    
           1
     5.723483    0.000000    0.000993
     0.000000    4.240094    0.000000
     0.001455    0.000000    8.394561
   In   Pd
   4   8
Direct configuration=    15
   0.82220000  0.25000000  0.39890000
   0.17841327  0.75000000  0.60037134
   0.67832206  0.75000000  0.89939032
   0.32169807  0.25000000  0.10033779
   0.84235558  0.25000000  0.07186055
   0.15776941  0.75000000  0.92750757
   0.65803539  0.75000000  0.57211059
   0.34242018  0.25000000  0.42758078
   0.93276099  0.25000000  0.73001271
   0.06734226  0.75000000  0.26943395
   0.56708895  0.75000000  0.23034879
   0.43294844  0.25000000  0.76948152
bulk                                    
           1
     5.725091    0.000000    0.001167
     0.000000    4.239017    0.000000
     0.001711    0.000000    8.392901
   In   Pd
   4   8
Direct configuration=    16
   0.82220000  0.25000000  0.39890000
   0.17853407  0.75000000  0.60036817
   0.67822884  0.75000000  0.89924402
   0.32190829  0.25000000  0.10043955
   0.84259109  0.25000000  0.07195786
   0.15745951  0.75000000  0.92735623
   0.65775655  0.75000000  0.57214192
   0.34288637  0.25000000  0.42747540
   0.93222903  0.25000000  0.72991956
   0.06768888  0.75000000  0.26946321
   0.56776374  0.75000000  0.23024965
   0.43252295  0.25000000  0.76944902
