 vasp.5.4.4.18Apr17-6-g9f103f2a35 (build May 11 2017 09:47:33) complex          
  
 executed on            tekla2IFC date 2020.09.14  09:47:01
 running on   12 total cores
 distrk:  each k-point on   12 cores,    1 groups
 distr:  one band on NCORES_PER_BAND=   1 cores,   12 groups


--------------------------------------------------------------------------------------------------------


 INCAR:
 POTCAR:    PAW_PBE In 08Apr2002                  
 POTCAR:    PAW_PBE Pd 04Jan2005                  

 ----------------------------------------------------------------------------- 
|                                                                             |
|           W    W    AA    RRRRR   N    N  II  N    N   GGGG   !!!           |
|           W    W   A  A   R    R  NN   N  II  NN   N  G    G  !!!           |
|           W    W  A    A  R    R  N N  N  II  N N  N  G       !!!           |
|           W WW W  AAAAAA  RRRRR   N  N N  II  N  N N  G  GGG   !            |
|           WW  WW  A    A  R   R   N   NN  II  N   NN  G    G                |
|           W    W  A    A  R    R  N    N  II  N    N   GGGG   !!!           |
|                                                                             |
|      For optimal performance we recommend to set                            |
|        NCORE= 4 - approx SQRT( number of cores)                             |
|      NCORE specifies how many cores store one orbital (NPAR=cpu/NCORE).     |
|      This setting can  greatly improve the performance of VASP for DFT.     |
|      The default,   NCORE=1            might be grossly inefficient         |
|      on modern multi-core architectures or massively parallel machines.     |
|      Do your own testing !!!!                                               |
|      Unfortunately you need to use the default for GW and RPA calculations. |
|      (for HF NCORE is supported but not extensively tested yet)             |
|                                                                             |
 ----------------------------------------------------------------------------- 

 POTCAR:    PAW_PBE In 08Apr2002                  
  local pseudopotential read in
  partial core-charges read in
  partial kinetic energy density read in
  atomic valenz-charges read in
  non local Contribution for L=           0  read in
    real space projection operators read in
  non local Contribution for L=           0  read in
    real space projection operators read in
  non local Contribution for L=           1  read in
    real space projection operators read in
  non local Contribution for L=           1  read in
    real space projection operators read in
  non local Contribution for L=           2  read in
    real space projection operators read in
    PAW grid and wavefunctions read in
 
   number of l-projection  operators is LMAX  =           5
   number of lm-projection operators is LMMAX =          13
 
 POTCAR:    PAW_PBE Pd 04Jan2005                  
  local pseudopotential read in
  partial core-charges read in
  partial kinetic energy density read in
  atomic valenz-charges read in
  non local Contribution for L=           2  read in
    real space projection operators read in
  non local Contribution for L=           2  read in
    real space projection operators read in
  non local Contribution for L=           0  read in
    real space projection operators read in
  non local Contribution for L=           0  read in
    real space projection operators read in
  non local Contribution for L=           1  read in
    real space projection operators read in
  non local Contribution for L=           1  read in
    real space projection operators read in
    PAW grid and wavefunctions read in
 
   number of l-projection  operators is LMAX  =           6
   number of lm-projection operators is LMMAX =          18
 
 Optimization of the real space projectors (new method)

 maximal supplied QI-value         = 12.09
 optimisation between [QCUT,QGAM] = [ 10.76, 21.65] = [ 32.44,131.24] Ry 
 Optimized for a Real-space Cutoff    1.65 Angstroem

   l    n(q)    QCUT    max X(q) W(low)/X(q) W(high)/X(q)  e(spline) 
   0     11    10.764   106.980    0.17E-03    0.26E-03    0.98E-06
   0     11    10.764    81.086    0.18E-03    0.28E-03    0.11E-05
   1     10    10.764    53.097    0.42E-03    0.22E-03    0.10E-05
   1     10    10.764    32.621    0.39E-03    0.21E-03    0.95E-06
   2     10    10.764     8.820    0.14E-03    0.25E-03    0.18E-06
 Optimization of the real space projectors (new method)

 maximal supplied QI-value         = 14.36
 optimisation between [QCUT,QGAM] = [ 10.77, 21.69] = [ 32.49,131.70] Ry 
 Optimized for a Real-space Cutoff    1.46 Angstroem

   l    n(q)    QCUT    max X(q) W(low)/X(q) W(high)/X(q)  e(spline) 
   2      9    10.771    59.108    0.11E-03    0.29E-03    0.19E-06
   2      9    10.771    58.101    0.11E-03    0.29E-03    0.19E-06
   0     10    10.771   102.235    0.41E-04    0.80E-04    0.63E-07
   0     10    10.771    58.388    0.39E-04    0.76E-04    0.60E-07
   1      9    10.771    22.191    0.50E-03    0.23E-03    0.35E-06
   1      9    10.771    15.590    0.42E-03    0.19E-03    0.29E-06
  PAW_PBE In 08Apr2002                  :
 energy of atom  1       EATOM=  -53.7908
 kinetic energy error for atom=    0.0000 (will be added to EATOM!!)
  PAW_PBE Pd 04Jan2005                  :
 energy of atom  2       EATOM= -809.7530
 kinetic energy error for atom=    0.0051 (will be added to EATOM!!)
 
 
 POSCAR: InPd2                                   
  positions in cartesian coordinates
  No initial velocities read in
 exchange correlation table for  LEXCH =        8
   RHO(1)=    0.500       N(1)  =     2000
   RHO(2)=  100.500       N(2)  =     4000
 


--------------------------------------------------------------------------------------------------------


 ion  position               nearest neighbor table
   1  0.187  0.864  0.060-  19 2.74  11 2.74  14 2.75  12 2.77  13 2.85  15 2.94   4 3.39   3 3.81

   2  0.287  0.385  0.088-  16 2.74  11 2.75   9 2.75  10 2.77  18 2.77  15 2.85  13 2.94  17 2.99
                             3 3.39   7 3.39   4 3.80
   3  0.626  0.192  0.099-  17 2.74   9 2.74  14 2.75  16 2.75  15 2.77  10 2.85  12 2.94  20 2.94
                             2 3.39   5 3.81   1 3.81
   4  0.725  0.712  0.127-  14 2.74  17 2.75  11 2.75  21 2.77  13 2.77  12 2.85  10 2.94  18 2.94
                            19 2.99   1 3.39   5 3.39   2 3.80   6 3.81
   5  0.883  0.006  0.255-  19 2.74  16 2.75  22 2.75  12 2.77  20 2.77  21 2.85  23 2.94  15 2.94
                            14 2.99   8 3.39   4 3.39   3 3.81   7 3.81
   6  0.983  0.526  0.283-  16 2.74  24 2.74  19 2.75  17 2.75  18 2.77  23 2.85  13 2.94  21 2.94
                             7 3.39   8 3.80   4 3.81
   7  0.322  0.333  0.294-  17 2.74  22 2.75  24 2.75  23 2.77  15 2.77  18 2.85  20 2.94  16 2.99
                             6 3.39   2 3.39   5 3.81
   8  0.422  0.853  0.322-  14 2.74  22 2.74  19 2.75  21 2.77  20 2.85  18 2.94   5 3.39   6 3.80

   9  0.945  0.293  0.000-   3 2.74   2 2.75  12 2.92  10 2.96  13 2.98  16 3.04
  10  0.649  0.460  0.013-   2 2.77   3 2.85  13 2.88   4 2.94   9 2.96  17 2.96  11 2.98
  11  0.401  0.668  0.028-   1 2.74   2 2.75   4 2.75  13 2.95  10 2.98  18 2.98  14 3.04
  12  0.903  0.012  0.084-   5 2.77   1 2.77   4 2.85  15 2.88   9 2.92   3 2.94  14 2.95  16 2.98

  13  0.009  0.564  0.103-   4 2.77   1 2.85  18 2.88  10 2.88  16 2.92   6 2.94   2 2.94  19 2.95
                            11 2.95   9 2.98  17 2.98
  14  0.512  0.908  0.159-   8 2.74   4 2.74   3 2.75   1 2.75  18 2.92  12 2.95  20 2.95  15 2.98
                             5 2.99  19 3.04  11 3.04
  15  0.263  0.116  0.174-   7 2.77   3 2.77   2 2.85  12 2.88  20 2.88  19 2.92   5 2.94   1 2.94
                            16 2.95  22 2.98  14 2.98
  16  0.968  0.284  0.187-   6 2.74   2 2.74   5 2.75   3 2.75  13 2.92  23 2.95  15 2.95  12 2.98
                            20 2.98   7 2.99   9 3.04  17 3.04
  17  0.641  0.434  0.195-   3 2.74   7 2.74   4 2.75   6 2.75  20 2.92  18 2.96  10 2.96  21 2.98
                            13 2.98   2 2.99  24 3.04  16 3.04
  18  0.345  0.601  0.208-   6 2.77   2 2.77   7 2.85  13 2.88  21 2.88  14 2.92   8 2.94   4 2.94
                            17 2.96  19 2.98  11 2.98
  19  0.097  0.810  0.223-   1 2.74   5 2.74   6 2.75   8 2.75  15 2.92  13 2.95  21 2.95  18 2.98
                             4 2.99  14 3.04  22 3.04
  20  0.599  0.153  0.279-   5 2.77   8 2.85  23 2.88  15 2.88  17 2.92   7 2.94   3 2.94  22 2.95
                            14 2.95  24 2.98  16 2.98
  21  0.705  0.706  0.298-   4 2.77   8 2.77   5 2.85  18 2.88  24 2.92   6 2.94  19 2.95  17 2.98

  22  0.208  0.049  0.354-   8 2.74   7 2.75   5 2.75  20 2.95  15 2.98  23 2.98  19 3.04
  23  0.959  0.258  0.369-   7 2.77   6 2.85  20 2.88   5 2.94  16 2.95  24 2.95  22 2.98
  24  0.664  0.425  0.382-   6 2.74   7 2.75  21 2.92  23 2.95  20 2.98  17 3.04
 
  LATTYP: Found a simple monoclinic cell.
 ALAT       =    10.1579782147
 B/A-ratio  =     1.5934174491
 C/A-ratio  =     1.4583445438
 COS(beta)  =    -0.9034124961
  
  Lattice vectors:
  
 A1 = (  -4.5987578706,  -9.0573697870,   0.0000000000)
 A2 = (   0.0000000000,   0.0000000000, -16.1858997345)
 A3 = (  11.7223578767,   9.0573697870,   0.0000000000)


Analysis of symmetry for initial positions (statically):
=====================================================================
 Subroutine PRICEL returns:
 Original cell was already a primitive cell.
 

 Routine SETGRP: Setting up the symmetry group for a 
 simple monoclinic supercell.


 Subroutine GETGRP returns: Found  1 space group operations
 (whereof  1 operations were pure point group operations)
 out of a pool of  4 trial point group operations.


The static configuration has the point symmetry C_1 .


Analysis of symmetry for dynamics (positions and initial velocities):
=====================================================================
 Subroutine PRICEL returns:
 Original cell was already a primitive cell.
 

 Routine SETGRP: Setting up the symmetry group for a 
 simple monoclinic supercell.


 Subroutine GETGRP returns: Found  1 space group operations
 (whereof  1 operations were pure point group operations)
 out of a pool of  4 trial point group operations.


The dynamic configuration has the point symmetry C_1 .


Analysis of constrained symmetry for selective dynamics:
=====================================================================
 Subroutine PRICEL returns:
 Original cell was already a primitive cell.
 

 Routine SETGRP: Setting up the symmetry group for a 
 simple monoclinic supercell.


 Subroutine GETGRP returns: Found  1 space group operations
 (whereof  1 operations were pure point group operations)
 out of a pool of  4 trial point group operations.


The constrained configuration has the point symmetry C_1 .


 Subroutine INISYM returns: Found  1 space group operations
 (whereof  1 operations are pure point group operations),
 and found     1 'primitive' translations

 
 
 KPOINTS: K-Points                                

Automatic generation of k-mesh.
Space group operators:
 irot       det(A)        alpha          n_x          n_y          n_z        tau_x        tau_y        tau_z
    1     1.000000     0.000000     1.000000     0.000000     0.000000     0.000000     0.000000     0.000000
 
 Subroutine IBZKPT returns following result:
 ===========================================
 
 Found     11 irreducible k-points:
 
 Following reciprocal coordinates:
            Coordinates               Weight
  0.000000  0.000000  0.000000      1.000000
  0.200000 -0.000000  0.000000      2.000000
  0.400000 -0.000000  0.000000      2.000000
  0.000000  0.250000  0.000000      2.000000
  0.200000  0.250000  0.000000      2.000000
  0.400000  0.250000  0.000000      2.000000
 -0.400000  0.250000  0.000000      2.000000
 -0.200000  0.250000  0.000000      2.000000
  0.000000  0.500000  0.000000      1.000000
  0.200000  0.500000  0.000000      2.000000
  0.400000  0.500000  0.000000      2.000000
 
 Following cartesian coordinates:
            Coordinates               Weight
  0.000000  0.000000  0.000000      1.000000
  0.028076  0.007826  0.000000      2.000000
  0.056151  0.015653  0.000000      2.000000
  0.000000  0.027602  0.000000      2.000000
  0.028076  0.035428  0.000000      2.000000
  0.056151  0.043255  0.000000      2.000000
 -0.056151  0.011949  0.000000      2.000000
 -0.028076  0.019775  0.000000      2.000000
  0.000000  0.055204  0.000000      1.000000
  0.028076  0.063030  0.000000      2.000000
  0.056151  0.070856  0.000000      2.000000
 


--------------------------------------------------------------------------------------------------------




 Dimension of arrays:
   k-points           NKPTS =     11   k-points in BZ     NKDIM =     11   number of bands    NBANDS=    120
   number of dos      NEDOS =    301   number of ions     NIONS =     24
   non local maximal  LDIM  =      6   non local SUM 2l+1 LMDIM =     18
   total plane-waves  NPLWV = 168000
   max r-space proj   IRMAX =   3070   max aug-charges    IRDMAX=  18345
   dimension x,y,z NGX =    40 NGY =   50 NGZ =   84
   dimension x,y,z NGXF=    80 NGYF=  100 NGZF=  168
   support grid    NGXF=    80 NGYF=  100 NGZF=  168
   ions per type =               8  16
   NGX,Y,Z   is equivalent  to a cutoff of   9.33,  8.84,  8.63 a.u.
   NGXF,Y,Z  is equivalent  to a cutoff of  18.67, 17.68, 17.26 a.u.

 SYSTEM =  alloy-surf                              
 POSCAR =  InPd2                                   

 Startparameter for this run:
   NWRITE =      0    write-flag & timer
   PREC   = normal    normal or accurate (medium, high low for compatibility)
   ISTART =      0    job   : 0-new  1-cont  2-samecut
   ICHARG =      2    charge: 1-file 2-atom 10-const
   ISPIN  =      1    spin polarized calculation?
   LNONCOLLINEAR =      F non collinear calculations
   LSORBIT =      F    spin-orbit coupling
   INIWAV =      1    electr: 0-lowe 1-rand  2-diag
   LASPH  =      F    aspherical Exc in radial PAW
   METAGGA=      F    non-selfconsistent MetaGGA calc.

 Electronic Relaxation 1
   ENCUT  =  450.0 eV  33.07 Ry    5.75 a.u.  12.32 16.26 28.00*2*pi/ulx,y,z
   ENINI  =  450.0     initial cutoff
   ENAUG  =  416.2 eV  augmentation charge cutoff
   NELM   =    100;   NELMIN=  5; NELMDL= -7     # of ELM steps 
   EDIFF  = 0.1E-04   stopping-criterion for ELM
   LREAL  =      T    real-space projection
   NLSPLINE    = F    spline interpolate recip. space projectors
   LCOMPAT=      F    compatible to vasp.4.4
   GGA_COMPAT  = T    GGA compatible to vasp.4.4-vasp.4.6
   LMAXPAW     = -100 max onsite density
   LMAXMIX     =    2 max onsite mixed and CHGCAR
   VOSKOWN=      0    Vosko Wilk Nusair interpolation
   ROPT   =   -0.00050  -0.00050
 Ionic relaxation
   EDIFFG = -.3E-01   stopping-criterion for IOM
   NSW    =    200    number of steps for IOM
   NBLOCK =      1;   KBLOCK =    200    inner block; outer block 
   IBRION =      1    ionic relax: 0-MD 1-quasi-New 2-CG
   NFREE  =      2    steps in history (QN), initial steepest desc. (CG)
   ISIF   =      2    stress and relaxation
   IWAVPR =     11    prediction:  0-non 1-charg 2-wave 3-comb
   ISYM   =      2    0-nonsym 1-usesym 2-fastsym
   LCORR  =      T    Harris-Foulkes like correction to forces

   POTIM  = 0.1500    time-step for ionic-motion
   TEIN   =    0.0    initial temperature
   TEBEG  =    0.0;   TEEND  =   0.0 temperature during run
   SMASS  =  -3.00    Nose mass-parameter (am)
   estimated Nose-frequenzy (Omega)   =  0.10E-29 period in steps =****** mass=  -0.116E-26a.u.
   SCALEE = 1.0000    scale energy and forces
   NPACO  =    256;   APACO  = 16.0  distance and # of slots for P.C.
   PSTRESS=    0.0 pullay stress

  Mass of Ions in am
   POMASS = 114.82106.42
  Ionic Valenz
   ZVAL   =   3.00 10.00
  Atomic Wigner-Seitz radii
   RWIGS  =  -1.00 -1.00
  virtual crystal weights 
   VCA    =   1.00  1.00
   NELECT =     184.0000    total number of electrons
   NUPDOWN=      -1.0000    fix difference up-down

 DOS related values:
   EMIN   =  10.00;   EMAX   =-10.00  energy-range for DOS
   EFERMI =   0.00
   ISMEAR =     0;   SIGMA  =   0.03  broadening in eV -4-tet -1-fermi 0-gaus

 Electronic relaxation 2 (details)
   IALGO  =     68    algorithm
   LDIAG  =      T    sub-space diagonalisation (order eigenvalues)
   LSUBROT=      F    optimize rotation matrix (better conditioning)
   TURBO    =      0    0=normal 1=particle mesh
   IRESTART =      0    0=no restart 2=restart with 2 vectors
   NREBOOT  =      0    no. of reboots
   NMIN     =      0    reboot dimension
   EREF     =   0.00    reference energy to select bands
   IMIX   =      4    mixing-type and parameters
     AMIX     =   0.10;   BMIX     =  3.00
     AMIX_MAG =   0.40;   BMIX_MAG =  3.00
     AMIN     =   0.01
     WC   =   100.;   INIMIX=   1;  MIXPRE=   1;  MAXMIX= -45

 Intra band minimization:
   WEIMIN = 0.0010     energy-eigenvalue tresh-hold
   EBREAK =  0.21E-07  absolut break condition
   DEPER  =   0.30     relativ break condition  

   TIME   =   0.40     timestep for ELM

  volume/ion in A,a.u.               =      43.51       293.65
  Fermi-wavevector in a.u.,A,eV,Ry     =   0.917772  1.734337 11.460251  0.842305
  Thomas-Fermi vector in A             =   2.042778
 
 Write flags
   LWAVE        =      F    write WAVECAR
   LDOWNSAMPLE  =      F    k-point downsampling of WAVECAR
   LCHARG       =      F    write CHGCAR
   LVTOT        =      F    write LOCPOT, total local potential
   LVHAR        =      F    write LOCPOT, Hartree potential only
   LELF         =      F    write electronic localiz. function (ELF)
   LORBIT       =      0    0 simple, 1 ext, 2 COOP (PROOUT), +10 PAW based schemes


 Dipole corrections
   LMONO  =      F    monopole corrections only (constant potential shift)
   LDIPOL =      T    correct potential (dipole corrections)
   IDIPOL =      3    1-x, 2-y, 3-z, 4-all directions 
   EPSILON=  1.0000000 bulk dielectric constant

 Exchange correlation treatment:
   GGA     =    PE    GGA type
   LEXCH   =     8    internal setting for exchange type
   VOSKOWN=      0    Vosko Wilk Nusair interpolation
   LHFCALC =     F    Hartree Fock is set to
   LHFONE  =     F    Hartree Fock one center treatment
   AEXX    =    0.0000 exact exchange contribution

 Linear response parameters
   LEPSILON=     F    determine dielectric tensor
   LRPA    =     F    only Hartree local field effects (RPA)
   LNABLA  =     F    use nabla operator in PAW spheres
   LVEL    =     F    velocity operator in full k-point grid
   LINTERFAST=   F  fast interpolation
   KINTER  =     0    interpolate to denser k-point grid
   CSHIFT  =0.1000    complex shift for real part using Kramers Kronig
   OMEGAMAX=  -1.0    maximum frequency
   DEG_THRESHOLD= 0.2000000E-02 threshold for treating states as degnerate
   RTIME   =   -0.100 relaxation time in fs
  (WPLASMAI=    0.000 imaginary part of plasma frequency in eV, 0.658/RTIME)
   DFIELD  = 0.0000000 0.0000000 0.0000000 field for delta impulse in time
 
 Orbital magnetization related:
   ORBITALMAG=     F  switch on orbital magnetization
   LCHIMAG   =     F  perturbation theory with respect to B field
   DQ        =  0.001000  dq finite difference perturbation B field
   LLRAUG    =     F  two centre corrections for induced B field



--------------------------------------------------------------------------------------------------------


 quasi-Newton-method for relaxation of ions
   using selective dynamics as specified on POSCAR
   WARNING: If single coordinates had been selected the selection of coordinates
            is made according to the corresponding   d i r e c t   coordinates!
            Don't support selection of single cartesian coordinates -- sorry ...
  !
 charge density and potential will be updated during run
 non-spin polarized calculation
 RMM-DIIS sequential band-by-band and
  variant of blocked Davidson during initial phase
 perform sub-space diagonalisation
    before iterative eigenvector-optimisation
 modified Broyden-mixing scheme, WC =      100.0
 initial mixing is a Kerker type mixing with AMIX =  0.1000 and BMIX =      3.0000
 Hartree-type preconditioning will be used
 using additional bands           28
 real space projection scheme for non local part
 use partial core corrections
 calculate Harris-corrections to forces 
   (improved forces if not selfconsistent)
 use gradient corrections 
 use of overlap-Matrix (Vanderbilt PP)
 Gauss-broadening in eV      SIGMA  =   0.03


--------------------------------------------------------------------------------------------------------


  energy-cutoff  :      450.00
  volume of cell :     1044.33
      direct lattice vectors                 reciprocal lattice vectors
     7.123600006  0.000000000  0.000000000     0.140378460  0.039132050  0.000000000
    -2.524842136  9.057369787  0.000000000     0.000000000  0.110407328  0.000000000
     0.000000000  0.000000000 16.185899735     0.000000000  0.000000000  0.061782169

  length of vectors
     7.123600006  9.402700424 16.185899735     0.145730674  0.110407328  0.061782169


 
 k-points in units of 2pi/SCALE and weight: K-Points                                
   0.00000000  0.00000000  0.00000000       0.050
   0.02807569  0.00782641  0.00000000       0.100
   0.05615138  0.01565282  0.00000000       0.100
   0.00000000  0.02760183  0.00000000       0.100
   0.02807569  0.03542824  0.00000000       0.100
   0.05615138  0.04325465  0.00000000       0.100
  -0.05615138  0.01194901  0.00000000       0.100
  -0.02807569  0.01977542  0.00000000       0.100
   0.00000000  0.05520366  0.00000000       0.050
   0.02807569  0.06303007  0.00000000       0.100
   0.05615138  0.07085648  0.00000000       0.100
 
 k-points in reciprocal lattice and weights: K-Points                                
   0.00000000  0.00000000  0.00000000       0.050
   0.20000000 -0.00000000  0.00000000       0.100
   0.40000000 -0.00000000  0.00000000       0.100
   0.00000000  0.25000000  0.00000000       0.100
   0.20000000  0.25000000  0.00000000       0.100
   0.40000000  0.25000000  0.00000000       0.100
  -0.40000000  0.25000000  0.00000000       0.100
  -0.20000000  0.25000000  0.00000000       0.100
   0.00000000  0.50000000  0.00000000       0.050
   0.20000000  0.50000000  0.00000000       0.100
   0.40000000  0.50000000  0.00000000       0.100
 
 position of ions in fractional coordinates (direct lattice) 
   0.18663999  0.86427999  0.05988000
   0.28696001  0.38490000  0.08790000
   0.62568998  0.19158000  0.09918000
   0.72549999  0.71184999  0.12715000
   0.88265997  0.00569000  0.25492001
   0.98298001  0.52631003  0.28294000
   0.32170999  0.33298001  0.29422000
   0.42151001  0.85325998  0.32218000
   0.94466001  0.29256999  0.00000000
   0.64916003  0.46002001  0.01303000
   0.40053001  0.66846001  0.02812000
   0.90309000  0.01169000  0.08416000
   0.00918000  0.56448001  0.10290000
   0.51166999  0.90785003  0.15886000
   0.26289999  0.11626000  0.17392001
   0.96789002  0.28365001  0.18714000
   0.64068002  0.43397999  0.19504000
   0.34516999  0.60141999  0.20807000
   0.09655000  0.80987000  0.22316000
   0.59911001  0.15310000  0.27919999
   0.70520002  0.70587999  0.29793999
   0.20769000  0.04925000  0.35389999
   0.95892000  0.25766999  0.36895001
   0.66390997  0.42506000  0.38218001
 
 position of ions in cartesian coordinates  (Angst):
  -0.85262186  7.82810343  0.96921167
   1.07237655  3.48618166  1.42274055
   3.97345592  1.73521088  1.60531750
   3.37086287  6.44748857  2.05803714
   6.27335023  0.05153643  4.12610965
   5.67350669  4.76698453  4.57963848
   1.45101134  3.01592305  4.76221543
   0.84832196  7.72829117  5.21477322
   5.99068699  2.64991463  0.00000000
   3.46287848  4.16657130  0.21090227
   1.16545958  6.05448951  0.45514750
   6.40373653  0.10588065  1.36220532
  -1.35982826  5.11270416  1.66552906
   1.35275437  8.22273341  2.57129200
   1.57925626  1.05300981  2.81505177
   6.17868988  2.56912304  3.02902932
   3.46821720  3.93071723  3.15689792
   0.94036243  5.44728320  3.36780008
  -1.35701031  7.33529211  3.61204536
   3.88126672  1.38668330  4.51910301
   3.24132731  6.39341606  4.82242674
   1.35515202  0.44607545  5.72818968
   6.18038650  2.33381234  5.97178786
   3.65621967  3.84992564  6.18592725
 


--------------------------------------------------------------------------------------------------------


 k-point  1 :   0.0000 0.0000 0.0000  plane waves:   22655
 k-point  2 :   0.2000-0.0000 0.0000  plane waves:   22647
 k-point  3 :   0.4000-0.0000 0.0000  plane waves:   22623
 k-point  4 :   0.0000 0.2500 0.0000  plane waves:   22673
 k-point  5 :   0.2000 0.2500 0.0000  plane waves:   22604
 k-point  6 :   0.4000 0.2500 0.0000  plane waves:   22623
 k-point  7 :  -0.4000 0.2500 0.0000  plane waves:   22619
 k-point  8 :  -0.2000 0.2500 0.0000  plane waves:   22639
 k-point  9 :   0.0000 0.5000 0.0000  plane waves:   22650
 k-point 10 :   0.2000 0.5000 0.0000  plane waves:   22625
 k-point 11 :   0.4000 0.5000 0.0000  plane waves:   22616

 maximum and minimum number of plane-waves per node :     22673    22604

 maximum number of plane-waves:     22673
 maximum index in each direction: 
   IXMAX=   12   IYMAX=   16   IZMAX=   27
   IXMIN=  -12   IYMIN=  -16   IZMIN=  -27


 serial   3D FFT for wavefunctions
 parallel 3D FFT for charge:
    minimum data exchange during FFTs selected (reduces bandwidth)


 total amount of memory used by VASP MPI-rank0    98172. kBytes
=======================================================================

   base      :      30000. kBytes
   nonlr-proj:       9143. kBytes
   fftplans  :       4650. kBytes
   grid      :      13393. kBytes
   one-center:        373. kBytes
   wavefun   :      40613. kBytes
 
     INWAV:  cpu time    0.0000: real time    0.0002
 Broyden mixing: mesh for mixing (old mesh)
   NGX = 25   NGY = 33   NGZ = 55
  (NGX  = 80   NGY  =100   NGZ  =168)
  gives a total of  45375 points

 initial charge density was supplied:
 charge density of overlapping atoms calculated
 number of electron     184.0000000 magnetization 
 keeping initial charge density in first step


--------------------------------------------------------------------------------------------------------


 Maximum index for non-local projection operator         2948
 Maximum index for augmentation-charges         1775 (set IRDMAX)


--------------------------------------------------------------------------------------------------------


 First call to EWALD:  gamma=   0.175
 Maximum number of real-space cells 4x 3x 2
 Maximum number of reciprocal cells 2x 3x 4

    FEWALD:  cpu time    0.0030: real time    0.0032


--------------------------------------- Iteration      1(   1)  ---------------------------------------


    POTLOK:  cpu time    0.2410: real time    0.2436
    SETDIJ:  cpu time    0.0260: real time    0.0266
     EDDAV:  cpu time   25.1782: real time   25.2349
       DOS:  cpu time    0.0020: real time    0.0022
    --------------------------------------------
      LOOP:  cpu time   25.4471: real time   25.5073

 eigenvalue-minimisations  :  2640
 total energy-change (2. order) : 0.1039791E+04  (-0.6827679E+04)
 number of electron     184.0000000 magnetization 
 augmentation part      184.0000000 magnetization 

 DIPCOR: dipole corrections for dipol
 direction  3 min pos   117,
 dipolmoment           0.000000      0.000000     -0.000120 electrons x Angstroem
 Tr[quadrupol]     -2139.233540

 energy correction for charged system         0.000000 eV
 dipol+quadrupol energy correction           -0.000000 eV
 added-field ion interaction          0.000035 eV  (added to PSCEN)


 Free energy of the ion-electron system (eV)
  ---------------------------------------------------
  alpha Z        PSCENC =       182.24868444
  Ewald energy   TEWEN  =     11149.23115453
  -Hartree energ DENC   =    -24848.05494255
  -exchange      EXHF   =         0.00000000
  -V(xc)+E(xc)   XCENC  =      -922.50011326
  PAW double counting   =     13661.59498581   -12191.00304961
  entropy T*S    EENTRO =        -0.00974195
  eigenvalues    EBANDS =       621.99203000
  atomic energy  EATOM  =     13386.29214936
  Solvation  Ediel_sol  =         0.00000000
  ---------------------------------------------------
  free energy    TOTEN  =      1039.79115677 eV

  energy without entropy =     1039.80089872  energy(sigma->0) =     1039.79602774


--------------------------------------------------------------------------------------------------------




--------------------------------------- Iteration      1(   2)  ---------------------------------------


     EDDAV:  cpu time   28.7476: real time   28.8155
       DOS:  cpu time    0.0030: real time    0.0021
    --------------------------------------------
      LOOP:  cpu time   28.7506: real time   28.8177

 eigenvalue-minimisations  :  3120
 total energy-change (2. order) :-0.1074578E+04  (-0.9917053E+03)
 number of electron     184.0000000 magnetization 
 augmentation part      184.0000000 magnetization 

 DIPCOR: dipole corrections for dipol
 direction  3 min pos   117,
 dipolmoment           0.000000      0.000000     -0.000120 electrons x Angstroem
 Tr[quadrupol]     -2139.233540

 energy correction for charged system         0.000000 eV
 dipol+quadrupol energy correction           -0.000000 eV
 added-field ion interaction          0.000035 eV  (added to PSCEN)


 Free energy of the ion-electron system (eV)
  ---------------------------------------------------
  alpha Z        PSCENC =       182.24868444
  Ewald energy   TEWEN  =     11149.23115453
  -Hartree energ DENC   =    -24848.05494255
  -exchange      EXHF   =         0.00000000
  -V(xc)+E(xc)   XCENC  =      -922.50011326
  PAW double counting   =     13661.59498581   -12191.00304961
  entropy T*S    EENTRO =        -0.00606186
  eigenvalues    EBANDS =      -452.58975775
  atomic energy  EATOM  =     13386.29214936
  Solvation  Ediel_sol  =         0.00000000
  ---------------------------------------------------
  free energy    TOTEN  =       -34.78695091 eV

  energy without entropy =      -34.78088904  energy(sigma->0) =      -34.78391997


--------------------------------------------------------------------------------------------------------




--------------------------------------- Iteration      1(   3)  ---------------------------------------


     EDDAV:  cpu time   28.6696: real time   28.7302
       DOS:  cpu time    0.0040: real time    0.0045
    --------------------------------------------
      LOOP:  cpu time   28.6736: real time   28.7347

 eigenvalue-minimisations  :  3108
 total energy-change (2. order) :-0.7284800E+02  (-0.6934331E+02)
 number of electron     184.0000000 magnetization 
 augmentation part      184.0000000 magnetization 

 DIPCOR: dipole corrections for dipol
 direction  3 min pos   117,
 dipolmoment           0.000000      0.000000     -0.000120 electrons x Angstroem
 Tr[quadrupol]     -2139.233540

 energy correction for charged system         0.000000 eV
 dipol+quadrupol energy correction           -0.000000 eV
 added-field ion interaction          0.000035 eV  (added to PSCEN)


 Free energy of the ion-electron system (eV)
  ---------------------------------------------------
  alpha Z        PSCENC =       182.24868444
  Ewald energy   TEWEN  =     11149.23115453
  -Hartree energ DENC   =    -24848.05494255
  -exchange      EXHF   =         0.00000000
  -V(xc)+E(xc)   XCENC  =      -922.50011326
  PAW double counting   =     13661.59498581   -12191.00304961
  entropy T*S    EENTRO =        -0.00561265
  eigenvalues    EBANDS =      -525.43821015
  atomic energy  EATOM  =     13386.29214936
  Solvation  Ediel_sol  =         0.00000000
  ---------------------------------------------------
  free energy    TOTEN  =      -107.63495409 eV

  energy without entropy =     -107.62934143  energy(sigma->0) =     -107.63214776


--------------------------------------------------------------------------------------------------------




--------------------------------------- Iteration      1(   4)  ---------------------------------------


     EDDAV:  cpu time   29.4975: real time   29.5594
       DOS:  cpu time    0.0020: real time    0.0022
    --------------------------------------------
      LOOP:  cpu time   29.4995: real time   29.5615

 eigenvalue-minimisations  :  3216
 total energy-change (2. order) :-0.1999712E+01  (-0.1988775E+01)
 number of electron     184.0000000 magnetization 
 augmentation part      184.0000000 magnetization 

 DIPCOR: dipole corrections for dipol
 direction  3 min pos   117,
 dipolmoment           0.000000      0.000000     -0.000120 electrons x Angstroem
 Tr[quadrupol]     -2139.233540

 energy correction for charged system         0.000000 eV
 dipol+quadrupol energy correction           -0.000000 eV
 added-field ion interaction          0.000035 eV  (added to PSCEN)


 Free energy of the ion-electron system (eV)
  ---------------------------------------------------
  alpha Z        PSCENC =       182.24868444
  Ewald energy   TEWEN  =     11149.23115453
  -Hartree energ DENC   =    -24848.05494255
  -exchange      EXHF   =         0.00000000
  -V(xc)+E(xc)   XCENC  =      -922.50011326
  PAW double counting   =     13661.59498581   -12191.00304961
  entropy T*S    EENTRO =        -0.00539509
  eigenvalues    EBANDS =      -527.43813977
  atomic energy  EATOM  =     13386.29214936
  Solvation  Ediel_sol  =         0.00000000
  ---------------------------------------------------
  free energy    TOTEN  =      -109.63466614 eV

  energy without entropy =     -109.62927105  energy(sigma->0) =     -109.63196860


--------------------------------------------------------------------------------------------------------




--------------------------------------- Iteration      1(   5)  ---------------------------------------


     EDDAV:  cpu time   30.2094: real time   30.2750
       DOS:  cpu time    0.0060: real time    0.0058
    --------------------------------------------
      LOOP:  cpu time   30.2154: real time   30.2808

 eigenvalue-minimisations  :  3324
 total energy-change (2. order) :-0.6403440E-01  (-0.6400435E-01)
 number of electron     184.0000000 magnetization 
 augmentation part      184.0000000 magnetization 

 DIPCOR: dipole corrections for dipol
 direction  3 min pos   117,
 dipolmoment           0.000000      0.000000     -0.000120 electrons x Angstroem
 Tr[quadrupol]     -2139.233540

 energy correction for charged system         0.000000 eV
 dipol+quadrupol energy correction           -0.000000 eV
 added-field ion interaction          0.000035 eV  (added to PSCEN)


 Free energy of the ion-electron system (eV)
  ---------------------------------------------------
  alpha Z        PSCENC =       182.24868444
  Ewald energy   TEWEN  =     11149.23115453
  -Hartree energ DENC   =    -24848.05494255
  -exchange      EXHF   =         0.00000000
  -V(xc)+E(xc)   XCENC  =      -922.50011326
  PAW double counting   =     13661.59498581   -12191.00304961
  entropy T*S    EENTRO =        -0.00536978
  eigenvalues    EBANDS =      -527.50219948
  atomic energy  EATOM  =     13386.29214936
  Solvation  Ediel_sol  =         0.00000000
  ---------------------------------------------------
  free energy    TOTEN  =      -109.69870054 eV

  energy without entropy =     -109.69333076  energy(sigma->0) =     -109.69601565


--------------------------------------------------------------------------------------------------------




--------------------------------------- Iteration      1(   6)  ---------------------------------------


     EDDAV:  cpu time   32.1281: real time   32.1960
       DOS:  cpu time    0.0050: real time    0.0046
    --------------------------------------------
      LOOP:  cpu time   32.1331: real time   32.2007

 eigenvalue-minimisations  :  3564
 total energy-change (2. order) :-0.3302540E-02  (-0.3302277E-02)
 number of electron     184.0000000 magnetization 
 augmentation part      184.0000000 magnetization 

 DIPCOR: dipole corrections for dipol
 direction  3 min pos   117,
 dipolmoment           0.000000      0.000000     -0.000120 electrons x Angstroem
 Tr[quadrupol]     -2139.233540

 energy correction for charged system         0.000000 eV
 dipol+quadrupol energy correction           -0.000000 eV
 added-field ion interaction          0.000035 eV  (added to PSCEN)


 Free energy of the ion-electron system (eV)
  ---------------------------------------------------
  alpha Z        PSCENC =       182.24868444
  Ewald energy   TEWEN  =     11149.23115453
  -Hartree energ DENC   =    -24848.05494255
  -exchange      EXHF   =         0.00000000
  -V(xc)+E(xc)   XCENC  =      -922.50011326
  PAW double counting   =     13661.59498581   -12191.00304961
  entropy T*S    EENTRO =        -0.00536733
  eigenvalues    EBANDS =      -527.50550447
  atomic energy  EATOM  =     13386.29214936
  Solvation  Ediel_sol  =         0.00000000
  ---------------------------------------------------
  free energy    TOTEN  =      -109.70200308 eV

  energy without entropy =     -109.69663575  energy(sigma->0) =     -109.69931942


--------------------------------------------------------------------------------------------------------




--------------------------------------- Iteration      1(   7)  ---------------------------------------


     EDDAV:  cpu time   29.6965: real time   29.7611
       DOS:  cpu time    0.0030: real time    0.0033
    CHARGE:  cpu time    1.0138: real time    1.0158
    MIXING:  cpu time    0.0110: real time    0.0109
    --------------------------------------------
      LOOP:  cpu time   30.7243: real time   30.7911

 eigenvalue-minimisations  :  3228
 total energy-change (2. order) :-0.8265748E-04  (-0.8265437E-04)
 number of electron     183.9999978 magnetization 
 augmentation part       62.2155964 magnetization 

 DIPCOR: dipole corrections for dipol
 direction  3 min pos   117,
 dipolmoment           0.000000      0.000000     -0.000120 electrons x Angstroem
 Tr[quadrupol]     -2139.233540

 energy correction for charged system         0.000000 eV
 dipol+quadrupol energy correction           -0.000000 eV
 added-field ion interaction          0.000035 eV  (added to PSCEN)


 Broyden mixing:
  rms(total) = 0.18079E+01    rms(broyden)= 0.18079E+01
  rms(prec ) = 0.19429E+01
  weight for this iteration     100.00

 Free energy of the ion-electron system (eV)
  ---------------------------------------------------
  alpha Z        PSCENC =       182.24868444
  Ewald energy   TEWEN  =     11149.23115453
  -Hartree energ DENC   =    -24848.05494255
  -exchange      EXHF   =         0.00000000
  -V(xc)+E(xc)   XCENC  =      -922.50011326
  PAW double counting   =     13661.59498581   -12191.00304961
  entropy T*S    EENTRO =        -0.00536733
  eigenvalues    EBANDS =      -527.50558713
  atomic energy  EATOM  =     13386.29214936
  Solvation  Ediel_sol  =         0.00000000
  ---------------------------------------------------
  free energy    TOTEN  =      -109.70208574 eV

  energy without entropy =     -109.69671841  energy(sigma->0) =     -109.69940208


--------------------------------------------------------------------------------------------------------




--------------------------------------- Iteration      1(   8)  ---------------------------------------


    POTLOK:  cpu time    0.2270: real time    0.2286
    SETDIJ:  cpu time    0.0280: real time    0.0278
    EDDIAG:  cpu time    4.4013: real time    4.4108
  RMM-DIIS:  cpu time   11.8802: real time   11.9050
    ORTHCH:  cpu time    0.9549: real time    0.9569
       DOS:  cpu time    0.0040: real time    0.0036
    CHARGE:  cpu time    0.9809: real time    0.9829
    MIXING:  cpu time    0.0100: real time    0.0103
    --------------------------------------------
      LOOP:  cpu time   18.4862: real time   18.5260

 eigenvalue-minimisations  :  2652
 total energy-change (2. order) : 0.4651544E+00  (-0.5255427E-02)
 number of electron     183.9999978 magnetization 
 augmentation part       62.3559890 magnetization 

 DIPCOR: dipole corrections for dipol
 direction  3 min pos   118,
 dipolmoment           0.000000      0.000000      0.000350 electrons x Angstroem
 Tr[quadrupol]     -2139.594053

 energy correction for charged system         0.000000 eV
 dipol+quadrupol energy correction           -0.000000 eV
 added-field ion interaction          0.000974 eV  (added to PSCEN)


 Broyden mixing:
  rms(total) = 0.16228E+01    rms(broyden)= 0.16228E+01
  rms(prec ) = 0.17557E+01
  weight for this iteration     100.00

 eigenvalues of (default mixing * dielectric matrix)
  average eigenvalue GAMMA=   9.2925
  9.2925

 Free energy of the ion-electron system (eV)
  ---------------------------------------------------
  alpha Z        PSCENC =       182.24962345
  Ewald energy   TEWEN  =     11149.23115453
  -Hartree energ DENC   =    -24849.56516787
  -exchange      EXHF   =         0.00000000
  -V(xc)+E(xc)   XCENC  =      -922.52290951
  PAW double counting   =     13924.92541110   -12456.72791020
  entropy T*S    EENTRO =        -0.00567260
  eigenvalues    EBANDS =      -523.11360960
  atomic energy  EATOM  =     13386.29214936
  Solvation  Ediel_sol  =         0.00000000
  ---------------------------------------------------
  free energy    TOTEN  =      -109.23693134 eV

  energy without entropy =     -109.23125874  energy(sigma->0) =     -109.23409504


--------------------------------------------------------------------------------------------------------




--------------------------------------- Iteration      1(   9)  ---------------------------------------


    POTLOK:  cpu time    0.2240: real time    0.2245
    SETDIJ:  cpu time    0.0270: real time    0.0273
    EDDIAG:  cpu time    4.3853: real time    4.3958
  RMM-DIIS:  cpu time   11.8002: real time   11.8239
    ORTHCH:  cpu time    0.9579: real time    0.9598
       DOS:  cpu time    0.0020: real time    0.0028
    CHARGE:  cpu time    0.9729: real time    0.9748
    MIXING:  cpu time    0.0110: real time    0.0108
    --------------------------------------------
      LOOP:  cpu time   18.3802: real time   18.4197

 eigenvalue-minimisations  :  2650
 total energy-change (2. order) : 0.2723295E+01  (-0.3859922E+00)
 number of electron     183.9999978 magnetization 
 augmentation part       63.4113145 magnetization 

 DIPCOR: dipole corrections for dipol
 direction  3 min pos   115,
 dipolmoment           0.000000      0.000000      0.012766 electrons x Angstroem
 Tr[quadrupol]     -2142.907839

 energy correction for charged system         0.000000 eV
 dipol+quadrupol energy correction           -0.000014 eV
 added-field ion interaction         -0.082173 eV  (added to PSCEN)


 Broyden mixing:
  rms(total) = 0.31913E+00    rms(broyden)= 0.31911E+00
  rms(prec ) = 0.47880E+00
  weight for this iteration     100.00

 eigenvalues of (default mixing * dielectric matrix)
  average eigenvalue GAMMA=   5.8212
  2.1430  9.4994

 Free energy of the ion-electron system (eV)
  ---------------------------------------------------
  alpha Z        PSCENC =       182.16646296
  Ewald energy   TEWEN  =     11149.23115453
  -Hartree energ DENC   =    -24869.41823456
  -exchange      EXHF   =         0.00000000
  -V(xc)+E(xc)   XCENC  =      -922.47445051
  PAW double counting   =     16919.54877401   -15471.02492299
  entropy T*S    EENTRO =        -0.00812015
  eigenvalues    EBANDS =      -480.82644860
  atomic energy  EATOM  =     13386.29214936
  Solvation  Ediel_sol  =         0.00000000
  ---------------------------------------------------
  free energy    TOTEN  =      -106.51363594 eV

  energy without entropy =     -106.50551580  energy(sigma->0) =     -106.50957587


--------------------------------------------------------------------------------------------------------




--------------------------------------- Iteration      1(  10)  ---------------------------------------


    POTLOK:  cpu time    0.2210: real time    0.2232
    SETDIJ:  cpu time    0.0270: real time    0.0267
    EDDIAG:  cpu time    4.3873: real time    4.3977
  RMM-DIIS:  cpu time   11.7002: real time   11.7238
    ORTHCH:  cpu time    0.9599: real time    0.9615
       DOS:  cpu time    0.0040: real time    0.0043
    CHARGE:  cpu time    0.9749: real time    0.9772
    MIXING:  cpu time    0.0110: real time    0.0112
    --------------------------------------------
      LOOP:  cpu time   18.2852: real time   18.3256

 eigenvalue-minimisations  :  2652
 total energy-change (2. order) : 0.3703986E+00  (-0.3365590E-01)
 number of electron     183.9999978 magnetization 
 augmentation part       63.2751115 magnetization 

 DIPCOR: dipole corrections for dipol
 direction  3 min pos   119,
 dipolmoment           0.000000      0.000000     -0.021352 electrons x Angstroem
 Tr[quadrupol]     -2143.686580

 energy correction for charged system         0.000000 eV
 dipol+quadrupol energy correction           -0.000040 eV
 added-field ion interaction         -0.125070 eV  (added to PSCEN)


 Broyden mixing:
  rms(total) = 0.25731E+00    rms(broyden)= 0.25731E+00
  rms(prec ) = 0.38068E+00
  weight for this iteration     100.00

 eigenvalues of (default mixing * dielectric matrix)
  average eigenvalue GAMMA=   5.6219
  1.0517  8.2505  7.5637

 Free energy of the ion-electron system (eV)
  ---------------------------------------------------
  alpha Z        PSCENC =       182.12353962
  Ewald energy   TEWEN  =     11149.23115453
  -Hartree energ DENC   =    -24888.85444490
  -exchange      EXHF   =         0.00000000
  -V(xc)+E(xc)   XCENC  =      -922.03927847
  PAW double counting   =     17113.65879472   -15665.04279724
  entropy T*S    EENTRO =        -0.00898037
  eigenvalues    EBANDS =      -461.50337455
  atomic energy  EATOM  =     13386.29214936
  Solvation  Ediel_sol  =         0.00000000
  ---------------------------------------------------
  free energy    TOTEN  =      -106.14323731 eV

  energy without entropy =     -106.13425694  energy(sigma->0) =     -106.13874713


--------------------------------------------------------------------------------------------------------




--------------------------------------- Iteration      1(  11)  ---------------------------------------


    POTLOK:  cpu time    0.2270: real time    0.2268
    SETDIJ:  cpu time    0.0260: real time    0.0264
    EDDIAG:  cpu time    4.3803: real time    4.3903
  RMM-DIIS:  cpu time   11.7512: real time   11.7757
    ORTHCH:  cpu time    0.9559: real time    0.9575
       DOS:  cpu time    0.0100: real time    0.0101
    CHARGE:  cpu time    0.9799: real time    0.9816
    MIXING:  cpu time    0.0110: real time    0.0109
    --------------------------------------------
      LOOP:  cpu time   18.3412: real time   18.3793

 eigenvalue-minimisations  :  2650
 total energy-change (2. order) : 0.3383837E+00  (-0.4529232E-01)
 number of electron     183.9999978 magnetization 
 augmentation part       62.8407673 magnetization 

 DIPCOR: dipole corrections for dipol
 direction  3 min pos   121,
 dipolmoment           0.000000      0.000000     -0.047660 electrons x Angstroem
 Tr[quadrupol]     -2144.728890

 energy correction for charged system         0.000000 eV
 dipol+quadrupol energy correction           -0.000197 eV
 added-field ion interaction         -0.572150 eV  (added to PSCEN)


 Broyden mixing:
  rms(total) = 0.19665E+00    rms(broyden)= 0.19664E+00
  rms(prec ) = 0.27461E+00
  weight for this iteration     100.00

 eigenvalues of (default mixing * dielectric matrix)
  average eigenvalue GAMMA=   4.7608
  8.1545  6.8799  0.9648  3.0439

 Free energy of the ion-electron system (eV)
  ---------------------------------------------------
  alpha Z        PSCENC =       181.67630301
  Ewald energy   TEWEN  =     11149.23115453
  -Hartree energ DENC   =    -24921.61133247
  -exchange      EXHF   =         0.00000000
  -V(xc)+E(xc)   XCENC  =      -921.26099625
  PAW double counting   =     16994.23546598   -15543.15536665
  entropy T*S    EENTRO =        -0.00873452
  eigenvalues    EBANDS =      -431.20349660
  atomic energy  EATOM  =     13386.29214936
  Solvation  Ediel_sol  =         0.00000000
  ---------------------------------------------------
  free energy    TOTEN  =      -105.80485361 eV

  energy without entropy =     -105.79611910  energy(sigma->0) =     -105.80048636


--------------------------------------------------------------------------------------------------------




--------------------------------------- Iteration      1(  12)  ---------------------------------------


    POTLOK:  cpu time    0.2240: real time    0.2261
    SETDIJ:  cpu time    0.0270: real time    0.0272
    EDDIAG:  cpu time    4.3913: real time    4.4007
  RMM-DIIS:  cpu time   11.6552: real time   11.6797
    ORTHCH:  cpu time    0.9619: real time    0.9638
       DOS:  cpu time    0.0060: real time    0.0056
    CHARGE:  cpu time    0.9889: real time    0.9912
    MIXING:  cpu time    0.0120: real time    0.0118
    --------------------------------------------
      LOOP:  cpu time   18.2662: real time   18.3061

 eigenvalue-minimisations  :  2650
 total energy-change (2. order) : 0.9959296E-01  (-0.7728376E-02)
 number of electron     183.9999978 magnetization 
 augmentation part       62.7685552 magnetization 

 DIPCOR: dipole corrections for dipol
 direction  3 min pos   116,
 dipolmoment           0.000000      0.000000      0.029402 electrons x Angstroem
 Tr[quadrupol]     -2145.219395

 energy correction for charged system         0.000000 eV
 dipol+quadrupol energy correction           -0.000075 eV
 added-field ion interaction         -0.098885 eV  (added to PSCEN)


 Broyden mixing:
  rms(total) = 0.17561E+00    rms(broyden)= 0.17561E+00
  rms(prec ) = 0.23335E+00
  weight for this iteration     100.00

 eigenvalues of (default mixing * dielectric matrix)
  average eigenvalue GAMMA=   4.9734
  9.0389  9.0389  4.5529  1.1182  1.1182

 Free energy of the ion-electron system (eV)
  ---------------------------------------------------
  alpha Z        PSCENC =       182.14968962
  Ewald energy   TEWEN  =     11149.23115453
  -Hartree energ DENC   =    -24931.85489278
  -exchange      EXHF   =         0.00000000
  -V(xc)+E(xc)   XCENC  =      -921.02741333
  PAW double counting   =     16960.38245956   -15509.03721797
  entropy T*S    EENTRO =        -0.00875168
  eigenvalues    EBANDS =      -421.83243795
  atomic energy  EATOM  =     13386.29214936
  Solvation  Ediel_sol  =         0.00000000
  ---------------------------------------------------
  free energy    TOTEN  =      -105.70526065 eV

  energy without entropy =     -105.69650897  energy(sigma->0) =     -105.70088481


--------------------------------------------------------------------------------------------------------




--------------------------------------- Iteration      1(  13)  ---------------------------------------


    POTLOK:  cpu time    0.2220: real time    0.2227
    SETDIJ:  cpu time    0.0280: real time    0.0276
    EDDIAG:  cpu time    4.3923: real time    4.4027
  RMM-DIIS:  cpu time   11.6682: real time   11.6918
    ORTHCH:  cpu time    0.9679: real time    0.9707
       DOS:  cpu time    0.0020: real time    0.0016
    CHARGE:  cpu time    0.9849: real time    0.9872
    MIXING:  cpu time    0.0130: real time    0.0121
    --------------------------------------------
      LOOP:  cpu time   18.2782: real time   18.3165

 eigenvalue-minimisations  :  2667
 total energy-change (2. order) : 0.4641147E-01  (-0.3102924E-02)
 number of electron     183.9999978 magnetization 
 augmentation part       62.6893689 magnetization 

 DIPCOR: dipole corrections for dipol
 direction  3 min pos   120,
 dipolmoment           0.000000      0.000000     -0.043155 electrons x Angstroem
 Tr[quadrupol]     -2145.501887

 energy correction for charged system         0.000000 eV
 dipol+quadrupol energy correction           -0.000161 eV
 added-field ion interaction         -0.385426 eV  (added to PSCEN)


 Broyden mixing:
  rms(total) = 0.16154E+00    rms(broyden)= 0.16154E+00
  rms(prec ) = 0.20857E+00
  weight for this iteration     100.00

 eigenvalues of (default mixing * dielectric matrix)
  average eigenvalue GAMMA=   5.1670
 10.9020 10.9020  5.8943  1.5026  1.0608  0.7402

 Free energy of the ion-electron system (eV)
  ---------------------------------------------------
  alpha Z        PSCENC =       181.86306197
  Ewald energy   TEWEN  =     11149.23115453
  -Hartree energ DENC   =    -24939.40909832
  -exchange      EXHF   =         0.00000000
  -V(xc)+E(xc)   XCENC  =      -920.84434181
  PAW double counting   =     16832.96312997   -15380.87059480
  entropy T*S    EENTRO =        -0.00872968
  eigenvalues    EBANDS =      -414.87558040
  atomic energy  EATOM  =     13386.29214936
  Solvation  Ediel_sol  =         0.00000000
  ---------------------------------------------------
  free energy    TOTEN  =      -105.65884918 eV

  energy without entropy =     -105.65011951  energy(sigma->0) =     -105.65448435


--------------------------------------------------------------------------------------------------------




--------------------------------------- Iteration      1(  14)  ---------------------------------------


    POTLOK:  cpu time    0.2180: real time    0.2210
    SETDIJ:  cpu time    0.0270: real time    0.0273
    EDDIAG:  cpu time    4.3963: real time    4.4069
  RMM-DIIS:  cpu time   11.8452: real time   11.8689
    ORTHCH:  cpu time    0.9619: real time    0.9640
       DOS:  cpu time    0.0020: real time    0.0017
    CHARGE:  cpu time    0.9839: real time    0.9863
    MIXING:  cpu time    0.0130: real time    0.0129
    --------------------------------------------
      LOOP:  cpu time   18.4472: real time   18.4890

 eigenvalue-minimisations  :  2660
 total energy-change (2. order) : 0.7851041E-01  (-0.8442305E-02)
 number of electron     183.9999978 magnetization 
 augmentation part       62.7047064 magnetization 

 DIPCOR: dipole corrections for dipol
 direction  3 min pos   122,
 dipolmoment           0.000000      0.000000     -0.084933 electrons x Angstroem
 Tr[quadrupol]     -2146.188844

 energy correction for charged system         0.000000 eV
 dipol+quadrupol energy correction           -0.000625 eV
 added-field ion interaction         -1.280643 eV  (added to PSCEN)


 Broyden mixing:
  rms(total) = 0.11101E+00    rms(broyden)= 0.11101E+00
  rms(prec ) = 0.15735E+00
  weight for this iteration     100.00

 eigenvalues of (default mixing * dielectric matrix)
  average eigenvalue GAMMA=   5.5814
 17.9475  9.6332  3.9917  3.9917  1.0146  1.0415  1.4496

 Free energy of the ion-electron system (eV)
  ---------------------------------------------------
  alpha Z        PSCENC =       180.96738163
  Ewald energy   TEWEN  =     11149.23115453
  -Hartree energ DENC   =    -24951.59716042
  -exchange      EXHF   =         0.00000000
  -V(xc)+E(xc)   XCENC  =      -920.56360820
  PAW double counting   =     16692.02607429   -15239.78899301
  entropy T*S    EENTRO =        -0.00854164
  eigenvalues    EBANDS =      -402.13879532
  atomic energy  EATOM  =     13386.29214936
  Solvation  Ediel_sol  =         0.00000000
  ---------------------------------------------------
  free energy    TOTEN  =      -105.58033878 eV

  energy without entropy =     -105.57179714  energy(sigma->0) =     -105.57606796


--------------------------------------------------------------------------------------------------------




--------------------------------------- Iteration      1(  15)  ---------------------------------------


    POTLOK:  cpu time    0.2170: real time    0.2177
    SETDIJ:  cpu time    0.0270: real time    0.0268
    EDDIAG:  cpu time    4.4053: real time    4.4151
  RMM-DIIS:  cpu time   11.7822: real time   11.8066
    ORTHCH:  cpu time    0.9629: real time    0.9654
       DOS:  cpu time    0.0030: real time    0.0027
    CHARGE:  cpu time    1.0018: real time    1.0036
    MIXING:  cpu time    0.0130: real time    0.0134
    --------------------------------------------
      LOOP:  cpu time   18.4122: real time   18.4514

 eigenvalue-minimisations  :  2661
 total energy-change (2. order) : 0.3564554E-01  (-0.1003132E-01)
 number of electron     183.9999978 magnetization 
 augmentation part       62.6630319 magnetization 

 DIPCOR: dipole corrections for dipol
 direction  3 min pos   117,
 dipolmoment           0.000000      0.000000      0.040683 electrons x Angstroem
 Tr[quadrupol]     -2146.892255

 energy correction for charged system         0.000000 eV
 dipol+quadrupol energy correction           -0.000143 eV
 added-field ion interaction         -0.011781 eV  (added to PSCEN)


 Broyden mixing:
  rms(total) = 0.11549E+00    rms(broyden)= 0.11549E+00
  rms(prec ) = 0.15609E+00
  weight for this iteration     100.00

 eigenvalues of (default mixing * dielectric matrix)
  average eigenvalue GAMMA=   5.3142
 18.1004  9.9199  5.2859  5.2859  1.1830  1.0362  1.0362  0.6662

 Free energy of the ion-electron system (eV)
  ---------------------------------------------------
  alpha Z        PSCENC =       182.23672484
  Ewald energy   TEWEN  =     11149.23115453
  -Hartree energ DENC   =    -24964.81792502
  -exchange      EXHF   =         0.00000000
  -V(xc)+E(xc)   XCENC  =      -920.26156126
  PAW double counting   =     16801.41692814   -15349.77081856
  entropy T*S    EENTRO =        -0.00835190
  eigenvalues    EBANDS =      -389.86299337
  atomic energy  EATOM  =     13386.29214936
  Solvation  Ediel_sol  =         0.00000000
  ---------------------------------------------------
  free energy    TOTEN  =      -105.54469324 eV

  energy without entropy =     -105.53634133  energy(sigma->0) =     -105.54051729


--------------------------------------------------------------------------------------------------------




--------------------------------------- Iteration      1(  16)  ---------------------------------------


    POTLOK:  cpu time    0.2240: real time    0.2249
    SETDIJ:  cpu time    0.0270: real time    0.0273
    EDDIAG:  cpu time    4.3933: real time    4.4034
  RMM-DIIS:  cpu time   11.9222: real time   11.9464
    ORTHCH:  cpu time    0.9659: real time    0.9681
       DOS:  cpu time    0.0050: real time    0.0045
    CHARGE:  cpu time    1.0038: real time    1.0067
    MIXING:  cpu time    0.0140: real time    0.0134
    --------------------------------------------
      LOOP:  cpu time   18.5552: real time   18.5948

 eigenvalue-minimisations  :  2681
 total energy-change (2. order) :-0.3916928E-02  (-0.1640084E-02)
 number of electron     183.9999978 magnetization 
 augmentation part       62.6956075 magnetization 

 DIPCOR: dipole corrections for dipol
 direction  3 min pos   115,
 dipolmoment           0.000000      0.000000      0.080730 electrons x Angstroem
 Tr[quadrupol]     -2147.037113

 energy correction for charged system         0.000000 eV
 dipol+quadrupol energy correction           -0.000565 eV
 added-field ion interaction         -0.519640 eV  (added to PSCEN)


 Broyden mixing:
  rms(total) = 0.90086E-01    rms(broyden)= 0.90086E-01
  rms(prec ) = 0.15330E+00
  weight for this iteration     100.00

 eigenvalues of (default mixing * dielectric matrix)
  average eigenvalue GAMMA=   5.0761
 18.3922 10.1514  6.7175  3.8932  1.9173  0.9756  0.9756  1.3310  1.3310

 Free energy of the ion-electron system (eV)
  ---------------------------------------------------
  alpha Z        PSCENC =       181.72844488
  Ewald energy   TEWEN  =     11149.23115453
  -Hartree energ DENC   =    -24966.69763317
  -exchange      EXHF   =         0.00000000
  -V(xc)+E(xc)   XCENC  =      -920.22472319
  PAW double counting   =     16682.83557480   -15231.27787496
  entropy T*S    EENTRO =        -0.00841621
  eigenvalues    EBANDS =      -387.42728620
  atomic energy  EATOM  =     13386.29214936
  Solvation  Ediel_sol  =         0.00000000
  ---------------------------------------------------
  free energy    TOTEN  =      -105.54861016 eV

  energy without entropy =     -105.54019395  energy(sigma->0) =     -105.54440206


--------------------------------------------------------------------------------------------------------




--------------------------------------- Iteration      1(  17)  ---------------------------------------


    POTLOK:  cpu time    0.2190: real time    0.2194
    SETDIJ:  cpu time    0.0260: real time    0.0265
    EDDIAG:  cpu time    4.3903: real time    4.4018
  RMM-DIIS:  cpu time   11.8902: real time   11.9145
    ORTHCH:  cpu time    0.9689: real time    0.9703
       DOS:  cpu time    0.0010: real time    0.0019
    CHARGE:  cpu time    0.9888: real time    0.9908
    MIXING:  cpu time    0.0160: real time    0.0160
    --------------------------------------------
      LOOP:  cpu time   18.5002: real time   18.5412

 eigenvalue-minimisations  :  2657
 total energy-change (2. order) : 0.1763958E-01  (-0.8387190E-03)
 number of electron     183.9999978 magnetization 
 augmentation part       62.7190896 magnetization 

 DIPCOR: dipole corrections for dipol
 direction  3 min pos   114,
 dipolmoment           0.000000      0.000000      0.065993 electrons x Angstroem
 Tr[quadrupol]     -2147.125896

 energy correction for charged system         0.000000 eV
 dipol+quadrupol energy correction           -0.000378 eV
 added-field ion interaction         -0.627613 eV  (added to PSCEN)


 Broyden mixing:
  rms(total) = 0.54818E-01    rms(broyden)= 0.54817E-01
  rms(prec ) = 0.87372E-01
  weight for this iteration     100.00

 eigenvalues of (default mixing * dielectric matrix)
  average eigenvalue GAMMA=   5.2035
 18.4368  9.5878  7.6904  7.6904  3.0609  1.3269  1.3269  1.0074  1.0074  0.9000

 Free energy of the ion-electron system (eV)
  ---------------------------------------------------
  alpha Z        PSCENC =       181.62065904
  Ewald energy   TEWEN  =     11149.23115453
  -Hartree energ DENC   =    -24967.43397487
  -exchange      EXHF   =         0.00000000
  -V(xc)+E(xc)   XCENC  =      -920.22279454
  PAW double counting   =     16665.05035191   -15213.63786587
  entropy T*S    EENTRO =        -0.00868556
  eigenvalues    EBANDS =      -386.42196459
  atomic energy  EATOM  =     13386.29214936
  Solvation  Ediel_sol  =         0.00000000
  ---------------------------------------------------
  free energy    TOTEN  =      -105.53097059 eV

  energy without entropy =     -105.52228503  energy(sigma->0) =     -105.52662781


--------------------------------------------------------------------------------------------------------




--------------------------------------- Iteration      1(  18)  ---------------------------------------


    POTLOK:  cpu time    0.2250: real time    0.2273
    SETDIJ:  cpu time    0.0270: real time    0.0269
    EDDIAG:  cpu time    4.4093: real time    4.4194
  RMM-DIIS:  cpu time   11.7642: real time   11.7883
    ORTHCH:  cpu time    0.9589: real time    0.9605
       DOS:  cpu time    0.0020: real time    0.0022
    CHARGE:  cpu time    1.0018: real time    1.0043
    MIXING:  cpu time    0.0170: real time    0.0162
    --------------------------------------------
      LOOP:  cpu time   18.4052: real time   18.4452

 eigenvalue-minimisations  :  2647
 total energy-change (2. order) :-0.4531033E-02  (-0.1586756E-02)
 number of electron     183.9999978 magnetization 
 augmentation part       62.6878005 magnetization 

 DIPCOR: dipole corrections for dipol
 direction  3 min pos   119,
 dipolmoment           0.000000      0.000000     -0.055297 electrons x Angstroem
 Tr[quadrupol]     -2147.214515

 energy correction for charged system         0.000000 eV
 dipol+quadrupol energy correction           -0.000265 eV
 added-field ion interaction         -0.323908 eV  (added to PSCEN)


 Broyden mixing:
  rms(total) = 0.65401E-01    rms(broyden)= 0.65398E-01
  rms(prec ) = 0.10823E+00
  weight for this iteration     100.00

 eigenvalues of (default mixing * dielectric matrix)
  average eigenvalue GAMMA=   5.4279
 18.6422 15.5692  9.6338  5.2966  4.0003  1.3826  1.3826  0.9985  0.9985  0.9013
  0.9013

 Free energy of the ion-electron system (eV)
  ---------------------------------------------------
  alpha Z        PSCENC =       181.92447620
  Ewald energy   TEWEN  =     11149.23115453
  -Hartree energ DENC   =    -24969.83320966
  -exchange      EXHF   =         0.00000000
  -V(xc)+E(xc)   XCENC  =      -920.19211832
  PAW double counting   =     16686.27400545   -15234.97063900
  entropy T*S    EENTRO =        -0.00857343
  eigenvalues    EBANDS =      -384.25274673
  atomic energy  EATOM  =     13386.29214936
  Solvation  Ediel_sol  =         0.00000000
  ---------------------------------------------------
  free energy    TOTEN  =      -105.53550162 eV

  energy without entropy =     -105.52692819  energy(sigma->0) =     -105.53121491


--------------------------------------------------------------------------------------------------------




--------------------------------------- Iteration      1(  19)  ---------------------------------------


    POTLOK:  cpu time    0.2240: real time    0.2249
    SETDIJ:  cpu time    0.0270: real time    0.0270
    EDDIAG:  cpu time    4.3783: real time    4.3881
  RMM-DIIS:  cpu time   12.0592: real time   12.0845
    ORTHCH:  cpu time    0.9699: real time    0.9716
       DOS:  cpu time    0.0020: real time    0.0018
    CHARGE:  cpu time    0.9789: real time    0.9809
    MIXING:  cpu time    0.0160: real time    0.0160
    --------------------------------------------
      LOOP:  cpu time   18.6552: real time   18.6949

 eigenvalue-minimisations  :  2650
 total energy-change (2. order) : 0.1101587E-01  (-0.1732823E-02)
 number of electron     183.9999978 magnetization 
 augmentation part       62.7231095 magnetization 

 DIPCOR: dipole corrections for dipol
 direction  3 min pos   116,
 dipolmoment           0.000000      0.000000      0.004504 electrons x Angstroem
 Tr[quadrupol]     -2147.487141

 energy correction for charged system         0.000000 eV
 dipol+quadrupol energy correction           -0.000002 eV
 added-field ion interaction         -0.015149 eV  (added to PSCEN)


 Broyden mixing:
  rms(total) = 0.49152E-01    rms(broyden)= 0.49152E-01
  rms(prec ) = 0.63875E-01
  weight for this iteration     100.00

 eigenvalues of (default mixing * dielectric matrix)
  average eigenvalue GAMMA=   5.1633
 19.6216 15.0680  9.7645  5.6694  4.0757  1.3765  1.3765  1.1382  1.0853  1.0038
  0.8900  0.8900

 Free energy of the ion-electron system (eV)
  ---------------------------------------------------
  alpha Z        PSCENC =       182.23349853
  Ewald energy   TEWEN  =     11149.23115453
  -Hartree energ DENC   =    -24973.20477495
  -exchange      EXHF   =         0.00000000
  -V(xc)+E(xc)   XCENC  =      -920.19461694
  PAW double counting   =     16611.25055302   -15160.45177225
  entropy T*S    EENTRO =        -0.00870803
  eigenvalues    EBANDS =      -380.67196902
  atomic energy  EATOM  =     13386.29214936
  Solvation  Ediel_sol  =         0.00000000
  ---------------------------------------------------
  free energy    TOTEN  =      -105.52448575 eV

  energy without entropy =     -105.51577772  energy(sigma->0) =     -105.52013173


--------------------------------------------------------------------------------------------------------




--------------------------------------- Iteration      1(  20)  ---------------------------------------


    POTLOK:  cpu time    0.2240: real time    0.2246
    SETDIJ:  cpu time    0.0270: real time    0.0275
    EDDIAG:  cpu time    4.3973: real time    4.4077
  RMM-DIIS:  cpu time   11.7532: real time   11.7766
    ORTHCH:  cpu time    0.9589: real time    0.9611
       DOS:  cpu time    0.0040: real time    0.0033
    CHARGE:  cpu time    0.9948: real time    0.9974
    MIXING:  cpu time    0.0170: real time    0.0170
    --------------------------------------------
      LOOP:  cpu time   18.3762: real time   18.4151

 eigenvalue-minimisations  :  2650
 total energy-change (2. order) : 0.1169593E-02  (-0.1790342E-03)
 number of electron     183.9999978 magnetization 
 augmentation part       62.7038973 magnetization 

 DIPCOR: dipole corrections for dipol
 direction  3 min pos   114,
 dipolmoment           0.000000      0.000000      0.041740 electrons x Angstroem
 Tr[quadrupol]     -2147.606097

 energy correction for charged system         0.000000 eV
 dipol+quadrupol energy correction           -0.000151 eV
 added-field ion interaction         -0.396964 eV  (added to PSCEN)


 Broyden mixing:
  rms(total) = 0.45908E-01    rms(broyden)= 0.45908E-01
  rms(prec ) = 0.57313E-01
  weight for this iteration     100.00

 eigenvalues of (default mixing * dielectric matrix)
  average eigenvalue GAMMA=   5.4018
 18.6903 18.6903  9.6426  5.9836  5.9836  3.6136  1.4014  1.4014  0.9961  0.9746
  0.9746  0.9355  0.9355

 Free energy of the ion-electron system (eV)
  ---------------------------------------------------
  alpha Z        PSCENC =       181.85153505
  Ewald energy   TEWEN  =     11149.23115453
  -Hartree energ DENC   =    -24975.74411629
  -exchange      EXHF   =         0.00000000
  -V(xc)+E(xc)   XCENC  =      -920.15779306
  PAW double counting   =     16616.57940280   -15165.76001763
  entropy T*S    EENTRO =        -0.00865140
  eigenvalues    EBANDS =      -377.80697951
  atomic energy  EATOM  =     13386.29214936
  Solvation  Ediel_sol  =         0.00000000
  ---------------------------------------------------
  free energy    TOTEN  =      -105.52331616 eV

  energy without entropy =     -105.51466476  energy(sigma->0) =     -105.51899046


--------------------------------------------------------------------------------------------------------




--------------------------------------- Iteration      1(  21)  ---------------------------------------


    POTLOK:  cpu time    0.2300: real time    0.2308
    SETDIJ:  cpu time    0.0270: real time    0.0269
    EDDIAG:  cpu time    4.3813: real time    4.3920
  RMM-DIIS:  cpu time   11.7882: real time   11.8124
    ORTHCH:  cpu time    0.9689: real time    0.9704
       DOS:  cpu time    0.0050: real time    0.0047
    CHARGE:  cpu time    0.9978: real time    0.9997
    MIXING:  cpu time    0.0180: real time    0.0183
    --------------------------------------------
      LOOP:  cpu time   18.4162: real time   18.4551

 eigenvalue-minimisations  :  2649
 total energy-change (2. order) :-0.1538560E-01  (-0.1339814E-02)
 number of electron     183.9999978 magnetization 
 augmentation part       62.6677963 magnetization 

 DIPCOR: dipole corrections for dipol
 direction  3 min pos   118,
 dipolmoment           0.000000      0.000000     -0.059781 electrons x Angstroem
 Tr[quadrupol]     -2147.986046

 energy correction for charged system         0.000000 eV
 dipol+quadrupol energy correction           -0.000310 eV
 added-field ion interaction         -0.166431 eV  (added to PSCEN)


 Broyden mixing:
  rms(total) = 0.56346E-01    rms(broyden)= 0.56344E-01
  rms(prec ) = 0.11166E+00
  weight for this iteration     100.00

 eigenvalues of (default mixing * dielectric matrix)
  average eigenvalue GAMMA=   5.5061
 20.3814 20.3814  9.2776  7.2302  7.2302  3.8115  1.3786  1.3786  1.1883  1.0101
  0.9988  0.9988  0.9103  0.9103

 Free energy of the ion-electron system (eV)
  ---------------------------------------------------
  alpha Z        PSCENC =       182.08190887
  Ewald energy   TEWEN  =     11149.23115453
  -Hartree energ DENC   =    -24983.55546962
  -exchange      EXHF   =         0.00000000
  -V(xc)+E(xc)   XCENC  =      -920.09666211
  PAW double counting   =     16648.33117340   -15197.36160660
  entropy T*S    EENTRO =        -0.00830621
  eigenvalues    EBANDS =      -370.45304336
  atomic energy  EATOM  =     13386.29214936
  Solvation  Ediel_sol  =         0.00000000
  ---------------------------------------------------
  free energy    TOTEN  =      -105.53870175 eV

  energy without entropy =     -105.53039555  energy(sigma->0) =     -105.53454865


--------------------------------------------------------------------------------------------------------




--------------------------------------- Iteration      1(  22)  ---------------------------------------


    POTLOK:  cpu time    0.2250: real time    0.2285
    SETDIJ:  cpu time    0.0280: real time    0.0276
    EDDIAG:  cpu time    4.3833: real time    4.3932
  RMM-DIIS:  cpu time   11.9222: real time   11.9474
    ORTHCH:  cpu time    0.9689: real time    0.9700
       DOS:  cpu time    0.0030: real time    0.0034
    CHARGE:  cpu time    0.9739: real time    0.9761
    MIXING:  cpu time    0.0200: real time    0.0199
    --------------------------------------------
      LOOP:  cpu time   18.5242: real time   18.5661

 eigenvalue-minimisations  :  2649
 total energy-change (2. order) :-0.1235056E-02  (-0.2413059E-03)
 number of electron     183.9999978 magnetization 
 augmentation part       62.6832105 magnetization 

 DIPCOR: dipole corrections for dipol
 direction  3 min pos   120,
 dipolmoment           0.000000      0.000000     -0.084344 electrons x Angstroem
 Tr[quadrupol]     -2148.172348

 energy correction for charged system         0.000000 eV
 dipol+quadrupol energy correction           -0.000617 eV
 added-field ion interaction         -0.753291 eV  (added to PSCEN)


 Broyden mixing:
  rms(total) = 0.52309E-01    rms(broyden)= 0.52309E-01
  rms(prec ) = 0.11143E+00
  weight for this iteration     100.00

 eigenvalues of (default mixing * dielectric matrix)
  average eigenvalue GAMMA=   6.1481
 27.8134 20.8984 10.3171 10.3171  6.4431  3.9171  3.9171  1.3652  1.3652  1.0130
  0.9800  0.9916  0.9916  0.9459  0.9459

 Free energy of the ion-electron system (eV)
  ---------------------------------------------------
  alpha Z        PSCENC =       181.49474158
  Ewald energy   TEWEN  =     11149.23115453
  -Hartree energ DENC   =    -24986.28001582
  -exchange      EXHF   =         0.00000000
  -V(xc)+E(xc)   XCENC  =      -920.08753383
  PAW double counting   =     16648.30621626   -15197.36775722
  entropy T*S    EENTRO =        -0.00832396
  eigenvalues    EBANDS =      -367.12056770
  atomic energy  EATOM  =     13386.29214936
  Solvation  Ediel_sol  =         0.00000000
  ---------------------------------------------------
  free energy    TOTEN  =      -105.53993681 eV

  energy without entropy =     -105.53161286  energy(sigma->0) =     -105.53577483


--------------------------------------------------------------------------------------------------------




--------------------------------------- Iteration      1(  23)  ---------------------------------------


    POTLOK:  cpu time    0.2250: real time    0.2256
    SETDIJ:  cpu time    0.0280: real time    0.0274
    EDDIAG:  cpu time    4.3933: real time    4.4040
  RMM-DIIS:  cpu time   11.9762: real time   12.0001
    ORTHCH:  cpu time    0.9629: real time    0.9655
       DOS:  cpu time    0.0060: real time    0.0055
    CHARGE:  cpu time    0.9739: real time    0.9762
    MIXING:  cpu time    0.0200: real time    0.0200
    --------------------------------------------
      LOOP:  cpu time   18.5852: real time   18.6242

 eigenvalue-minimisations  :  2653
 total energy-change (2. order) : 0.6639331E-02  (-0.2962313E-03)
 number of electron     183.9999978 magnetization 
 augmentation part       62.6823484 magnetization 

 DIPCOR: dipole corrections for dipol
 direction  3 min pos   121,
 dipolmoment           0.000000      0.000000     -0.072991 electrons x Angstroem
 Tr[quadrupol]     -2148.498996

 energy correction for charged system         0.000000 eV
 dipol+quadrupol energy correction           -0.000462 eV
 added-field ion interaction         -0.876233 eV  (added to PSCEN)


 Broyden mixing:
  rms(total) = 0.37007E-01    rms(broyden)= 0.37007E-01
  rms(prec ) = 0.78826E-01
  weight for this iteration     100.00

 eigenvalues of (default mixing * dielectric matrix)
  average eigenvalue GAMMA=   6.1492
 32.3023 20.4391 10.6558 10.6558  6.3238  4.5483  3.8000  1.3661  1.3661  0.9363
  0.9363  1.0879  1.0879  0.9367  0.9367  1.0086

 Free energy of the ion-electron system (eV)
  ---------------------------------------------------
  alpha Z        PSCENC =       181.37195432
  Ewald energy   TEWEN  =     11149.23115453
  -Hartree energ DENC   =    -24991.36164241
  -exchange      EXHF   =         0.00000000
  -V(xc)+E(xc)   XCENC  =      -920.05167183
  PAW double counting   =     16665.08085481   -15214.03226975
  entropy T*S    EENTRO =        -0.00833351
  eigenvalues    EBANDS =      -362.05549300
  atomic energy  EATOM  =     13386.29214936
  Solvation  Ediel_sol  =         0.00000000
  ---------------------------------------------------
  free energy    TOTEN  =      -105.53329748 eV

  energy without entropy =     -105.52496397  energy(sigma->0) =     -105.52913073


--------------------------------------------------------------------------------------------------------




--------------------------------------- Iteration      1(  24)  ---------------------------------------


    POTLOK:  cpu time    0.2250: real time    0.2262
    SETDIJ:  cpu time    0.0270: real time    0.0268
    EDDIAG:  cpu time    4.4043: real time    4.4150
  RMM-DIIS:  cpu time   11.8162: real time   11.8400
    ORTHCH:  cpu time    0.9699: real time    0.9713
       DOS:  cpu time    0.0040: real time    0.0041
    CHARGE:  cpu time    0.9899: real time    0.9918
    MIXING:  cpu time    0.0220: real time    0.0222
    --------------------------------------------
      LOOP:  cpu time   18.4582: real time   18.4974

 eigenvalue-minimisations  :  2650
 total energy-change (2. order) : 0.3037487E-02  (-0.9620609E-04)
 number of electron     183.9999978 magnetization 
 augmentation part       62.6835346 magnetization 

 DIPCOR: dipole corrections for dipol
 direction  3 min pos   122,
 dipolmoment           0.000000      0.000000     -0.068650 electrons x Angstroem
 Tr[quadrupol]     -2148.654826

 energy correction for charged system         0.000000 eV
 dipol+quadrupol energy correction           -0.000409 eV
 added-field ion interaction         -1.035134 eV  (added to PSCEN)


 Broyden mixing:
  rms(total) = 0.29253E-01    rms(broyden)= 0.29253E-01
  rms(prec ) = 0.60585E-01
  weight for this iteration     100.00

 eigenvalues of (default mixing * dielectric matrix)
  average eigenvalue GAMMA=   6.5025
 35.9008 21.1866 11.6769 10.6264  7.7896  5.0377  5.0377  3.6817  1.3668  1.3668
  0.9462  0.9462  0.9830  0.9830  1.0562  0.9618  0.9957

 Free energy of the ion-electron system (eV)
  ---------------------------------------------------
  alpha Z        PSCENC =       181.21310662
  Ewald energy   TEWEN  =     11149.23115453
  -Hartree energ DENC   =    -24993.48075632
  -exchange      EXHF   =         0.00000000
  -V(xc)+E(xc)   XCENC  =      -920.03217967
  PAW double counting   =     16669.44821996   -15218.39527875
  entropy T*S    EENTRO =        -0.00833772
  eigenvalues    EBANDS =      -359.79833800
  atomic energy  EATOM  =     13386.29214936
  Solvation  Ediel_sol  =         0.00000000
  ---------------------------------------------------
  free energy    TOTEN  =      -105.53025999 eV

  energy without entropy =     -105.52192227  energy(sigma->0) =     -105.52609113


--------------------------------------------------------------------------------------------------------




[...]
    EDDIAG:  cpu time    4.3873: real time    4.3985
  RMM-DIIS:  cpu time   11.8222: real time   11.8478
    ORTHCH:  cpu time    0.9629: real time    0.9644
       DOS:  cpu time    0.0020: real time    0.0023
    CHARGE:  cpu time    0.9559: real time    0.9585
    MIXING:  cpu time    0.0100: real time    0.0099
    --------------------------------------------
      LOOP:  cpu time   18.3982: real time   18.4428

 eigenvalue-minimisations  :  2657
 total energy-change (2. order) :-0.3668349E-03  (-0.3751452E-03)
 number of electron     184.0000020 magnetization 
 augmentation part       62.5839176 magnetization 

 DIPCOR: dipole corrections for dipol
 direction  3 min pos   115,
 dipolmoment           0.000000      0.000000     -0.000012 electrons x Angstroem
 Tr[quadrupol]     -2142.171101

 energy correction for charged system         0.000000 eV
 dipol+quadrupol energy correction           -0.000000 eV
 added-field ion interaction          0.000064 eV  (added to PSCEN)


 eigenvalues of (default mixing * dielectric matrix)
  average eigenvalue GAMMA=   1.2402
  1.2402

  free energy =  -0.105921233108E+03  energy without entropy=  -0.105914137804E+03


--------------------------------------------------------------------------------------------------------




--------------------------------------- Iteration     14(   3)  ---------------------------------------


    POTLOK:  cpu time    0.2340: real time    0.2344
    SETDIJ:  cpu time    0.0270: real time    0.0264
    EDDIAG:  cpu time    4.3593: real time    4.3708
  RMM-DIIS:  cpu time   15.9606: real time   15.9951
    ORTHCH:  cpu time    0.9629: real time    0.9646
       DOS:  cpu time    0.0030: real time    0.0034
    CHARGE:  cpu time    0.9988: real time    1.0014
    MIXING:  cpu time    0.0100: real time    0.0099
    --------------------------------------------
      LOOP:  cpu time   22.5556: real time   22.6060

 eigenvalue-minimisations  :  3611
 total energy-change (2. order) :-0.2672346E-04  (-0.2900106E-04)
 number of electron     184.0000020 magnetization 
 augmentation part       62.5840590 magnetization 

 DIPCOR: dipole corrections for dipol
 direction  3 min pos   115,
 dipolmoment           0.000000      0.000000     -0.000044 electrons x Angstroem
 Tr[quadrupol]     -2142.171265

 energy correction for charged system         0.000000 eV
 dipol+quadrupol energy correction           -0.000000 eV
 added-field ion interaction          0.000236 eV  (added to PSCEN)


 eigenvalues of (default mixing * dielectric matrix)
  average eigenvalue GAMMA=   1.5290
  1.5290  1.5290

  free energy =  -0.105921259832E+03  energy without entropy=  -0.105914164150E+03


--------------------------------------------------------------------------------------------------------




--------------------------------------- Iteration     14(   4)  ---------------------------------------


    POTLOK:  cpu time    0.2300: real time    0.2303
    SETDIJ:  cpu time    0.0270: real time    0.0272
    EDDIAG:  cpu time    4.3813: real time    4.3919
  RMM-DIIS:  cpu time    7.0019: real time    7.0176
    ORTHCH:  cpu time    0.9689: real time    0.9708
       DOS:  cpu time    0.0020: real time    0.0018
    CHARGE:  cpu time    0.9779: real time    0.9799
    MIXING:  cpu time    0.0160: real time    0.0161
    --------------------------------------------
      LOOP:  cpu time   13.6049: real time   13.6356

 eigenvalue-minimisations  :  1452
 total energy-change (2. order) : 0.4028330E-05  (-0.2605123E-06)
 number of electron     184.0000020 magnetization 
 augmentation part       62.5841476 magnetization 

 DIPCOR: dipole corrections for dipol
 direction  3 min pos   115,
 dipolmoment           0.000000      0.000000      0.000029 electrons x Angstroem
 Tr[quadrupol]     -2142.171283

 energy correction for charged system         0.000000 eV
 dipol+quadrupol energy correction           -0.000000 eV
 added-field ion interaction         -0.000156 eV  (added to PSCEN)


 eigenvalues of (default mixing * dielectric matrix)
  average eigenvalue GAMMA=   4.0777
  9.7271  0.9486  1.5574

  free energy =  -0.105921255804E+03  energy without entropy=  -0.105914160131E+03


--------------------------------------------------------------------------------------------------------




--------------------------------------- Iteration     14(   5)  ---------------------------------------


    POTLOK:  cpu time    0.2220: real time    0.2231
    SETDIJ:  cpu time    0.0270: real time    0.0270
    EDDIAG:  cpu time    4.3663: real time    4.3765
  RMM-DIIS:  cpu time    7.2559: real time    7.2719
    ORTHCH:  cpu time    0.9609: real time    0.9621
       DOS:  cpu time    0.0010: real time    0.0017
    --------------------------------------------
      LOOP:  cpu time   12.8330: real time   12.8623

 eigenvalue-minimisations  :  1518
 total energy-change (2. order) : 0.3960387E-05  (-0.2144800E-05)
 number of electron     184.0000020 magnetization 
 augmentation part       62.5841476 magnetization 

 DIPCOR: dipole corrections for dipol
 direction  3 min pos   115,
 dipolmoment           0.000000      0.000000      0.000385 electrons x Angstroem
 Tr[quadrupol]     -2142.171054

 energy correction for charged system         0.000000 eV
 dipol+quadrupol energy correction           -0.000000 eV
 added-field ion interaction         -0.002078 eV  (added to PSCEN)


  free energy =  -0.105921251843E+03  energy without entropy=  -0.105914156241E+03


--------------------------------------------------------------------------------------------------------




------------------------ aborting loop because EDIFF is reached ----------------------------------------


    CHARGE:  cpu time    0.9609: real time    0.9621
    FORLOC:  cpu time    0.0450: real time    0.0451
    FORNL :  cpu time    4.9223: real time    4.9332
    STRESS:  cpu time   14.5448: real time   14.5764
    FORCOR:  cpu time    0.2700: real time    0.2697
    FORHAR:  cpu time    0.0910: real time    0.0917
    MIXING:  cpu time    0.0090: real time    0.0084
    OFIELD:  cpu time    0.0000: real time    0.0001

  FORCE on cell =-STRESS in cart. coord.  units (eV):
  Direction    XX          YY          ZZ          XY          YZ          ZX
  --------------------------------------------------------------------------------------
  Alpha Z   182.24865   182.24865   182.24865
  Ewald   19588.29306 19026.88204-26754.09098  -267.19055   167.97210    14.24223
  Hartree 23248.74621 22806.05376-20348.49721  -169.24017   140.19765    25.09892
  E(xc)    -941.44650  -941.40476  -941.64883    -0.21865     0.90211     0.75664
  Local  -45648.36695-44652.55449 44274.16160   434.06602  -306.84740   -39.24234
  n-local   123.62046   119.11290    93.13271    -3.70163    -5.01912    -4.09948
  augment  1124.68610  1127.32976  1140.76928     2.54422     0.87769     0.95127
  Kinetic  2312.32137  2318.88227  2348.77473     5.92059     1.63000     2.22131
  Fock        0.00000     0.00000     0.00000     0.00000     0.00000     0.00000
  -------------------------------------------------------------------------------------
  Total      -9.89760   -13.44986    -5.15006     2.17983    -0.28696    -0.07146
  in kB     -15.18455   -20.63430    -7.90104     3.34422    -0.44025    -0.10964
  external pressure =      -14.57 kB  Pullay stress =        0.00 kB



--------------------------------------------------------------------------------------------------------



  FREE ENERGIE OF THE ION-ELECTRON SYSTEM (eV)
  ---------------------------------------------------
  free  energy   TOTEN  =      -105.92125184 eV

  energy  without entropy=     -105.91415624  energy(sigma->0) =     -105.91770404
 
 d Force = 0.6502080E-03[ 0.582E-03, 0.718E-03]  d Energy = 0.6489852E-03 0.122E-05
 d Force =-0.8848485E+01[-0.885E+01,-0.885E+01]  d Ewald  =-0.8848484E+01-0.491E-06


--------------------------------------------------------------------------------------------------------


    POTLOK:  cpu time    0.2650: real time    0.2655


--------------------------------------------------------------------------------------------------------


 Quasi-Newton relaxation of ions (Broydens 2nd method)
  g(Force)  = 0.103E-03   g(Stress)= 0.000E+00

 retain information from N=  2 steps
 eigenvalues of (default step * inverse Hessian matrix)
  average eigenvalue of G=  14.1482
 eigenvalue spectrum of G is 14.1482 14.1482


--------------------------------------------------------------------------------------------------------


    WAVPRE:  cpu time    0.0750: real time    0.0768
    FEWALD:  cpu time    0.0050: real time    0.0052
    ORTHCH:  cpu time    2.4976: real time    2.5024
     LOOP+:  cpu time  118.0261: real time  118.2988


--------------------------------------- Iteration     15(   1)  ---------------------------------------


    POTLOK:  cpu time    0.2310: real time    0.2323
    SETDIJ:  cpu time    0.0280: real time    0.0275
     EDDAV:  cpu time   26.1130: real time   26.1724
       DOS:  cpu time    0.0040: real time    0.0031
    CHARGE:  cpu time    0.9739: real time    0.9768
    MIXING:  cpu time    0.0100: real time    0.0093
    --------------------------------------------
      LOOP:  cpu time   27.3598: real time   27.4215

 eigenvalue-minimisations  :  2760
 total energy-change (2. order) :-0.1737769E-03  (-0.2265153E-01)
 number of electron     184.0000021 magnetization 
 augmentation part       62.5832690 magnetization 

 DIPCOR: dipole corrections for dipol
 direction  3 min pos   115,
 dipolmoment           0.000000      0.000000      0.000788 electrons x Angstroem
 Tr[quadrupol]     -2141.963120

 energy correction for charged system         0.000000 eV
 dipol+quadrupol energy correction           -0.000000 eV
 added-field ion interaction         -0.004238 eV  (added to PSCEN)


  free energy =  -0.105921429580E+03  energy without entropy=  -0.105914353813E+03


--------------------------------------------------------------------------------------------------------




--------------------------------------- Iteration     15(   2)  ---------------------------------------


    POTLOK:  cpu time    0.2340: real time    0.2347
    SETDIJ:  cpu time    0.0270: real time    0.0270
    EDDIAG:  cpu time    4.3713: real time    4.3824
  RMM-DIIS:  cpu time   11.8302: real time   11.8558
    ORTHCH:  cpu time    0.9679: real time    0.9698
       DOS:  cpu time    0.0010: real time    0.0017
    CHARGE:  cpu time    1.0008: real time    1.0031
    MIXING:  cpu time    0.0120: real time    0.0118
    --------------------------------------------
      LOOP:  cpu time   18.4442: real time   18.4862

 eigenvalue-minimisations  :  2657
 total energy-change (2. order) :-0.2744674E-03  (-0.2808546E-03)
 number of electron     184.0000021 magnetization 
 augmentation part       62.5834228 magnetization 

 DIPCOR: dipole corrections for dipol
 direction  3 min pos   115,
 dipolmoment           0.000000      0.000000      0.000688 electrons x Angstroem
 Tr[quadrupol]     -2141.963349

 energy correction for charged system         0.000000 eV
 dipol+quadrupol energy correction           -0.000000 eV
 added-field ion interaction         -0.003701 eV  (added to PSCEN)


 eigenvalues of (default mixing * dielectric matrix)
  average eigenvalue GAMMA=   1.2935
  1.2935

  free energy =  -0.105921704048E+03  energy without entropy=  -0.105914627175E+03


--------------------------------------------------------------------------------------------------------




--------------------------------------- Iteration     15(   3)  ---------------------------------------


    POTLOK:  cpu time    0.2320: real time    0.2352
    SETDIJ:  cpu time    0.0280: real time    0.0272
    EDDIAG:  cpu time    4.3933: real time    4.4048
  RMM-DIIS:  cpu time   14.7098: real time   14.7418
    ORTHCH:  cpu time    0.9619: real time    0.9635
       DOS:  cpu time    0.0050: real time    0.0047
    CHARGE:  cpu time    0.9639: real time    0.9736
    MIXING:  cpu time    0.0150: real time    0.0143
    --------------------------------------------
      LOOP:  cpu time   21.3088: real time   21.3650

 eigenvalue-minimisations  :  3289
 total energy-change (2. order) :-0.1959142E-04  (-0.2111082E-04)
 number of electron     184.0000021 magnetization 
 augmentation part       62.5835399 magnetization 

 DIPCOR: dipole corrections for dipol
 direction  3 min pos   115,
 dipolmoment           0.000000      0.000000      0.000665 electrons x Angstroem
 Tr[quadrupol]     -2141.963472

 energy correction for charged system         0.000000 eV
 dipol+quadrupol energy correction           -0.000000 eV
 added-field ion interaction         -0.003580 eV  (added to PSCEN)


 eigenvalues of (default mixing * dielectric matrix)
  average eigenvalue GAMMA=   1.8032
  1.8032  1.8032

  free energy =  -0.105921723639E+03  energy without entropy=  -0.105914646391E+03


--------------------------------------------------------------------------------------------------------




--------------------------------------- Iteration     15(   4)  ---------------------------------------


    POTLOK:  cpu time    0.2260: real time    0.2271
    SETDIJ:  cpu time    0.0280: real time    0.0275
    EDDIAG:  cpu time    4.3883: real time    4.3995
  RMM-DIIS:  cpu time    6.9979: real time    7.0128
    ORTHCH:  cpu time    0.9669: real time    0.9694
       DOS:  cpu time    0.0020: real time    0.0023
    CHARGE:  cpu time    0.9958: real time    0.9973
    MIXING:  cpu time    0.0110: real time    0.0117
    --------------------------------------------
      LOOP:  cpu time   13.6159: real time   13.6474

 eigenvalue-minimisations  :  1452
 total energy-change (2. order) : 0.2671399E-05  (-0.5210488E-06)
 number of electron     184.0000021 magnetization 
 augmentation part       62.5836509 magnetization 

 DIPCOR: dipole corrections for dipol
 direction  3 min pos   115,
 dipolmoment           0.000000      0.000000      0.000751 electrons x Angstroem
 Tr[quadrupol]     -2141.963479

 energy correction for charged system         0.000000 eV
 dipol+quadrupol energy correction           -0.000000 eV
 added-field ion interaction         -0.004041 eV  (added to PSCEN)


 eigenvalues of (default mixing * dielectric matrix)
  average eigenvalue GAMMA=   4.0611
  9.7392  0.9402  1.5040

  free energy =  -0.105921720968E+03  energy without entropy=  -0.105914643585E+03


--------------------------------------------------------------------------------------------------------




--------------------------------------- Iteration     15(   5)  ---------------------------------------


    POTLOK:  cpu time    0.2230: real time    0.2232
    SETDIJ:  cpu time    0.0270: real time    0.0275
    EDDIAG:  cpu time    4.3733: real time    4.3842
  RMM-DIIS:  cpu time    6.9219: real time    6.9362
    ORTHCH:  cpu time    0.9619: real time    0.9646
       DOS:  cpu time    0.0040: real time    0.0034
    --------------------------------------------
      LOOP:  cpu time   12.5111: real time   12.5391

 eigenvalue-minimisations  :  1475
 total energy-change (2. order) : 0.9125724E-06  (-0.1085346E-05)
 number of electron     184.0000021 magnetization 
 augmentation part       62.5836509 magnetization 

 DIPCOR: dipole corrections for dipol
 direction  3 min pos   115,
 dipolmoment           0.000000      0.000000      0.001047 electrons x Angstroem
 Tr[quadrupol]     -2141.963220

 energy correction for charged system         0.000000 eV
 dipol+quadrupol energy correction           -0.000000 eV
 added-field ion interaction         -0.005632 eV  (added to PSCEN)


  free energy =  -0.105921720055E+03  energy without entropy=  -0.105914642474E+03


--------------------------------------------------------------------------------------------------------




------------------------ aborting loop because EDIFF is reached ----------------------------------------


    CHARGE:  cpu time    0.9898: real time    0.9924
    FORLOC:  cpu time    0.0460: real time    0.0462
    FORNL :  cpu time    4.8643: real time    4.8744
    STRESS:  cpu time   14.4388: real time   14.4698
    FORCOR:  cpu time    0.2610: real time    0.2607
    FORHAR:  cpu time    0.0910: real time    0.0914
    MIXING:  cpu time    0.0080: real time    0.0085
    OFIELD:  cpu time    0.0000: real time    0.0000

  FORCE on cell =-STRESS in cart. coord.  units (eV):
  Direction    XX          YY          ZZ          XY          YZ          ZX
  --------------------------------------------------------------------------------------
  Alpha Z   182.24865   182.24865   182.24865
  Ewald   19595.93507 19033.83796-26761.34802  -267.54776   168.08987    14.54530
  Hartree 23256.21006 22812.84535-20355.45207  -169.53011   140.25160    25.24364
  E(xc)    -941.46082  -941.41383  -941.66014    -0.21876     0.90008     0.75652
  Local  -45663.54217-44666.36136 44288.39010   434.71452  -307.01311   -39.67271
  n-local   123.70187   119.17533    93.22580    -3.70119    -5.00702    -4.10159
  augment  1124.68755  1127.33739  1140.75015     2.54509     0.87237     0.94340
  Kinetic  2312.35089  2318.91768  2348.75582     5.91824     1.62547     2.20743
  Fock        0.00000     0.00000     0.00000     0.00000     0.00000     0.00000
  -------------------------------------------------------------------------------------
  Total      -9.86892   -13.41283    -5.08970     2.18002    -0.28075    -0.07802
  in kB     -15.14055   -20.57749    -7.80844     3.34451    -0.43071    -0.11970
  external pressure =      -14.51 kB  Pullay stress =        0.00 kB



--------------------------------------------------------------------------------------------------------



  FREE ENERGIE OF THE ION-ELECTRON SYSTEM (eV)
  ---------------------------------------------------
  free  energy   TOTEN  =      -105.92172006 eV

  energy  without entropy=     -105.91464247  energy(sigma->0) =     -105.91818126
 
 d Force = 0.4634987E-03[ 0.385E-03, 0.542E-03]  d Energy = 0.4682122E-03-0.471E-05
 d Force =-0.7340887E+01[-0.734E+01,-0.734E+01]  d Ewald  =-0.7340887E+01-0.157E-06


--------------------------------------------------------------------------------------------------------


    POTLOK:  cpu time    0.2610: real time    0.2609


--------------------------------------------------------------------------------------------------------


 Quasi-Newton relaxation of ions (Broydens 2nd method)
  g(Force)  = 0.808E-04   g(Stress)= 0.000E+00

 retain information from N=  2 steps
 eigenvalues of (default step * inverse Hessian matrix)
  average eigenvalue of G=  18.4951
 eigenvalue spectrum of G is 18.4951 18.4951


--------------------------------------------------------------------------------------------------------


  
 reached required accuracy - stopping structural energy minimisation
     LOOP+:  cpu time  114.2516: real time  114.5206
    4ORBIT:  cpu time    0.0000: real time    0.0000

 total amount of memory used by VASP MPI-rank0    98172. kBytes
=======================================================================

   base      :      30000. kBytes
   nonlr-proj:       9143. kBytes
   fftplans  :       4650. kBytes
   grid      :      13393. kBytes
   one-center:        373. kBytes
   wavefun   :      40613. kBytes
 
  
  
 General timing and accounting informations for this job:
 ========================================================
  
                  Total CPU time used (sec):     3265.003
                            User time (sec):     3222.442
                          System time (sec):       42.561
                         Elapsed time (sec):     3273.751
  
                   Maximum memory used (kb):      177644.
                   Average memory used (kb):           0.
  
                          Minor page faults:       741945
                          Major page faults:            0
                 Voluntary context switches:        12924
