<?xml version="1.0" encoding="ISO-8859-1"?>
<modeling>
 <generator>
  <i name="program" type="string">vasp </i>
  <i name="version" type="string">5.4.4.18Apr17-6-g9f103f2a35  </i>
  <i name="subversion" type="string">(build May 11 2017 09:47:33) complex            parallel </i>
  <i name="platform" type="string">tekla2IFC </i>
  <i name="date" type="string">2020 09 14 </i>
  <i name="time" type="string">09:47:01 </i>
 </generator>
 <incar>
  <i type="string" name="SYSTEM">   alloy-surf</i>
  <i type="int" name="ISTART">     0</i>
  <i type="string" name="PREC">normal</i>
  <i type="string" name="ALGO">   Fast</i>
  <i type="int" name="ISPIN">     1</i>
  <i name="AMIX">      0.10000000</i>
  <i name="BMIX">      3.00000000</i>
  <i name="AMIN">      0.01000000</i>
  <i type="int" name="ICHARG">     2</i>
  <i type="int" name="NELM">   100</i>
  <i type="int" name="NELMDL">    -7</i>
  <i type="int" name="NELMIN">     5</i>
  <i type="int" name="IBRION">     1</i>
  <i type="int" name="NFREE">     2</i>
  <i name="EDIFF">      0.00001000</i>
  <i name="EDIFFG">     -0.03000000</i>
  <i type="int" name="NSW">   200</i>
  <i name="ENCUT">    450.00000000</i>
  <i type="int" name="NBANDS">   120</i>
  <i name="POTIM">      0.15000000</i>
  <i type="string" name="LREAL">   Auto</i>
  <i type="int" name="ISMEAR">     0</i>
  <i name="SIGMA">      0.03000000</i>
  <i type="int" name="NWRITE">     0</i>
  <i type="logical" name="LWAVE"> F  </i>
  <i type="logical" name="LCHARG"> F  </i>
  <i type="logical" name="LAECHG"> F  </i>
  <v type="int" name="KPOINT_BSE">    -1     0     0     0</v>
  <i type="int" name="NELM">   100</i>
  <i type="string" name="GGA">  PE</i>
  <i type="logical" name="LDIPOL"> T  </i>
  <i type="int" name="IDIPOL">     3</i>
 </incar>
 <structure name="primitive_cell" >
  <crystal>
   <varray name="basis" >
    <v>       7.12360001       0.00000000       0.00000000 </v>
    <v>      -2.52484214       9.05736979       0.00000000 </v>
    <v>       0.00000000       0.00000000      16.18589973 </v>
   </varray>
   <i name="volume">   1044.33172306 </i>
   <varray name="rec_basis" >
    <v>       0.14037846       0.03913205       0.00000000 </v>
    <v>       0.00000000       0.11040733       0.00000000 </v>
    <v>       0.00000000       0.00000000       0.06178217 </v>
   </varray>
  </crystal>
  <varray name="positions" >
   <v>       0.18663999      -0.13572001       0.05988000 </v>
   <v>       0.09655000      -0.19013000       0.22316000 </v>
   <v>       0.40053001      -0.33153999       0.02812000 </v>
   <v>      -0.48833001      -0.09214997       0.15886000 </v>
   <v>      -0.09691000       0.01169000       0.08416000 </v>
   <v>       0.00918000      -0.43551999       0.10290000 </v>
   <v>       0.26289999       0.11626000       0.17392001 </v>
   <v>      -0.27450001      -0.28815001       0.12715000 </v>
   <v>      -0.37431002       0.19158000       0.09918000 </v>
   <v>       0.34516999      -0.39858001       0.20807000 </v>
   <v>      -0.11734003       0.00569000       0.25492001 </v>
   <v>       0.42151001      -0.14674002       0.32218000 </v>
   <v>      -0.35083997       0.46002001       0.01303000 </v>
   <v>      -0.01701999      -0.47368997       0.28294000 </v>
   <v>       0.28696001       0.38490000       0.08790000 </v>
   <v>      -0.05533999       0.29256999       0.00000000 </v>
   <v>      -0.40088999       0.15310000       0.27919999 </v>
   <v>      -0.03210998       0.28365001       0.18714000 </v>
   <v>       0.20769000       0.04925000       0.35389999 </v>
   <v>      -0.29479998      -0.29412001       0.29793999 </v>
   <v>      -0.35931998       0.43397999       0.19504000 </v>
   <v>       0.32170999       0.33298001       0.29422000 </v>
   <v>      -0.04108000       0.25766999       0.36895001 </v>
   <v>      -0.33609003       0.42506000       0.38218001 </v>
  </varray>
 </structure>
 <varray name="primitive_index" >
  <v type="int" >        1 </v>
  <v type="int" >       19 </v>
  <v type="int" >       11 </v>
  <v type="int" >       14 </v>
  <v type="int" >       12 </v>
  <v type="int" >       13 </v>
  <v type="int" >       15 </v>
  <v type="int" >        4 </v>
  <v type="int" >        3 </v>
  <v type="int" >       18 </v>
  <v type="int" >        5 </v>
  <v type="int" >        8 </v>
  <v type="int" >       10 </v>
  <v type="int" >        6 </v>
  <v type="int" >        2 </v>
  <v type="int" >        9 </v>
  <v type="int" >       20 </v>
  <v type="int" >       16 </v>
  <v type="int" >       22 </v>
  <v type="int" >       21 </v>
  <v type="int" >       17 </v>
  <v type="int" >        7 </v>
  <v type="int" >       23 </v>
  <v type="int" >       24 </v>
 </varray>
 <kpoints>
  <generation param="Gamma">
   <v type="int" name="divisions">       5        4        1 </v>
   <v name="usershift">      0.00000000       0.00000000       0.00000000 </v>
   <v name="genvec1">      0.20000000       0.00000000       0.00000000 </v>
   <v name="genvec2">      0.00000000       0.25000000       0.00000000 </v>
   <v name="genvec3">      0.00000000       0.00000000       1.00000000 </v>
   <v name="shift">      0.00000000       0.00000000       0.00000000 </v>
  </generation>
  <varray name="kpointlist" >
   <v>       0.00000000       0.00000000       0.00000000 </v>
   <v>       0.20000000      -0.00000000       0.00000000 </v>
   <v>       0.40000000      -0.00000000       0.00000000 </v>
   <v>       0.00000000       0.25000000       0.00000000 </v>
   <v>       0.20000000       0.25000000       0.00000000 </v>
   <v>       0.40000000       0.25000000       0.00000000 </v>
   <v>      -0.40000000       0.25000000       0.00000000 </v>
   <v>      -0.20000000       0.25000000       0.00000000 </v>
   <v>       0.00000000       0.50000000       0.00000000 </v>
   <v>       0.20000000       0.50000000       0.00000000 </v>
   <v>       0.40000000       0.50000000       0.00000000 </v>
  </varray>
  <varray name="weights" >
   <v>       0.05000000 </v>
   <v>       0.10000000 </v>
   <v>       0.10000000 </v>
   <v>       0.10000000 </v>
   <v>       0.10000000 </v>
   <v>       0.10000000 </v>
   <v>       0.10000000 </v>
   <v>       0.10000000 </v>
   <v>       0.05000000 </v>
   <v>       0.10000000 </v>
   <v>       0.10000000 </v>
  </varray>
 </kpoints>
 <parameters>
  <separator name="general" >
   <i type="string" name="SYSTEM">alloy-surf</i>
   <i type="logical" name="LCOMPAT"> F  </i>
  </separator>
  <separator name="electronic" >
   <i type="string" name="PREC">normal</i>
   <i name="ENMAX">    450.00000000</i>
   <i name="ENAUG">    416.23000000</i>
   <i name="EDIFF">      0.00001000</i>
   <i type="int" name="IALGO">    68</i>
   <i type="int" name="IWAVPR">    11</i>
   <i type="int" name="NBANDS">   120</i>
   <i name="NELECT">    184.00000000</i>
   <i type="int" name="TURBO">     0</i>
   <i type="int" name="IRESTART">     0</i>
   <i type="int" name="NREBOOT">     0</i>
   <i type="int" name="NMIN">     0</i>
   <i name="EREF">      0.00000000</i>
   <separator name="electronic smearing" >
    <i type="int" name="ISMEAR">     0</i>
    <i name="SIGMA">      0.03000000</i>
    <i name="KSPACING">      0.50000000</i>
    <i type="logical" name="KGAMMA"> T  </i>
   </separator>
   <separator name="electronic projectors" >
    <i type="logical" name="LREAL"> T  </i>
    <v name="ROPT">     -0.00050000     -0.00050000</v>
    <i type="int" name="LMAXPAW">  -100</i>
    <i type="int" name="LMAXMIX">     2</i>
    <i type="logical" name="NLSPLINE"> F  </i>
   </separator>
   <separator name="electronic startup" >
    <i type="int" name="ISTART">     0</i>
    <i type="int" name="ICHARG">     2</i>
    <i type="int" name="INIWAV">     1</i>
   </separator>
   <separator name="electronic spin" >
    <i type="int" name="ISPIN">     1</i>
    <i type="logical" name="LNONCOLLINEAR"> F  </i>
    <v name="MAGMOM">      1.00000000      1.00000000      1.00000000      1.00000000      1.00000000      1.00000000      1.00000000      1.00000000      1.00000000      1.00000000      1.00000000      1.00000000      1.00000000      1.00000000      1.00000000      1.00000000      1.00000000      1.00000000      1.00000000      1.00000000
      1.00000000      1.00000000      1.00000000      1.00000000</v>
    <i name="NUPDOWN">     -1.00000000</i>
    <i type="logical" name="LSORBIT"> F  </i>
    <v name="SAXIS">      0.00000000      0.00000000      1.00000000</v>
    <i type="logical" name="LSPIRAL"> F  </i>
    <v name="QSPIRAL">      0.00000000      0.00000000      0.00000000</v>
    <i type="logical" name="LZEROZ"> F  </i>
   </separator>
   <separator name="electronic exchange-correlation" >
    <i type="logical" name="LASPH"> F  </i>
    <i type="logical" name="LMETAGGA"> F  </i>
   </separator>
   <separator name="electronic convergence" >
    <i type="int" name="NELM">   100</i>
    <i type="int" name="NELMDL">    -7</i>
    <i type="int" name="NELMIN">     5</i>
    <i name="ENINI">    450.00000000</i>
    <separator name="electronic convergence detail" >
     <i type="logical" name="LDIAG"> T  </i>
     <i type="logical" name="LSUBROT"> F  </i>
     <i name="WEIMIN">      0.00100000</i>
     <i name="EBREAK">      0.00000002</i>
     <i name="DEPER">      0.30000000</i>
     <i type="int" name="NRMM">     4</i>
     <i name="TIME">      0.40000000</i>
    </separator>
   </separator>
   <separator name="electronic mixer" >
    <i name="AMIX">      0.10000000</i>
    <i name="BMIX">      3.00000000</i>
    <i name="AMIN">      0.01000000</i>
    <i name="AMIX_MAG">      0.40000000</i>
    <i name="BMIX_MAG">      3.00000000</i>
    <separator name="electronic mixer details" >
     <i type="int" name="IMIX">     4</i>
     <i type="logical" name="MIXFIRST"> F  </i>
     <i type="int" name="MAXMIX">   -45</i>
     <i name="WC">    100.00000000</i>
     <i type="int" name="INIMIX">     1</i>
     <i type="int" name="MIXPRE">     1</i>
     <i type="int" name="MREMOVE">     5</i>
    </separator>
   </separator>
   <separator name="electronic dipolcorrection" >
    <i type="logical" name="LDIPOL"> T  </i>
    <i type="logical" name="LMONO"> F  </i>
    <i type="int" name="IDIPOL">     3</i>
    <i name="EPSILON">      1.00000000</i>
    <v name="DIPOL">   -100.00000000   -100.00000000   -100.00000000</v>
    <i name="EFIELD">      0.00000000</i>
   </separator>
  </separator>
  <separator name="grids" >
   <i type="int" name="NGX">    40</i>
   <i type="int" name="NGY">    50</i>
   <i type="int" name="NGZ">    84</i>
   <i type="int" name="NGXF">    80</i>
   <i type="int" name="NGYF">   100</i>
   <i type="int" name="NGZF">   168</i>
   <i type="logical" name="ADDGRID"> F  </i>
  </separator>
  <separator name="ionic" >
   <i type="int" name="NSW">   200</i>
   <i type="int" name="IBRION">     1</i>
   <i type="int" name="MDALGO">     0</i>
   <i type="int" name="ISIF">     2</i>
   <i name="PSTRESS">      0.00000000</i>
   <i name="EDIFFG">     -0.03000000</i>
   <i type="int" name="NFREE">     2</i>
   <i name="POTIM">      0.15000000</i>
   <i name="SMASS">     -3.00000000</i>
   <i name="SCALEE">      1.00000000</i>
  </separator>
  <separator name="ionic md" >
   <i name="TEBEG">      0.00010000</i>
   <i name="TEEND">      0.00010000</i>
   <i type="int" name="NBLOCK">     1</i>
   <i type="int" name="KBLOCK">   200</i>
   <i type="int" name="NPACO">   256</i>
   <i name="APACO">     16.00000000</i>
  </separator>
  <separator name="symmetry" >
   <i type="int" name="ISYM">     2</i>
   <i name="SYMPREC">      0.00001000</i>
  </separator>
  <separator name="dos" >
   <i type="int" name="LORBIT">     0</i>
   <v name="RWIGS">     -1.00000000     -1.00000000</v>
   <i type="int" name="NEDOS">   301</i>
   <i name="EMIN">     10.00000000</i>
   <i name="EMAX">    -10.00000000</i>
   <i name="EFERMI">      0.00000000</i>
  </separator>
  <separator name="writing" >
   <i type="int" name="NWRITE">     0</i>
   <i type="logical" name="LWAVE"> F  </i>
   <i type="logical" name="LDOWNSAMPLE"> F  </i>
   <i type="logical" name="LCHARG"> F  </i>
   <i type="logical" name="LPARD"> F  </i>
   <i type="logical" name="LVTOT"> F  </i>
   <i type="logical" name="LVHAR"> F  </i>
   <i type="logical" name="LELF"> F  </i>
   <i type="logical" name="LOPTICS"> F  </i>
   <v name="STM">      0.00000000      0.00000000      0.00000000      0.00000000      0.00000000      0.00000000      0.00000000</v>
  </separator>
  <separator name="performance" >
   <i type="int" name="NPAR">    12</i>
   <i type="int" name="NSIM">     4</i>
   <i type="int" name="NBLK">    -1</i>
   <i type="logical" name="LPLANE"> T  </i>
   <i type="logical" name="LSCALAPACK"> T  </i>
   <i type="logical" name="LSCAAWARE"> F  </i>
   <i type="logical" name="LSCALU"> F  </i>
   <i type="logical" name="LASYNC"> F  </i>
   <i type="logical" name="LORBITALREAL"> F  </i>
  </separator>
  <separator name="miscellaneous" >
   <i type="int" name="IDIOT">     3</i>
   <i type="int" name="ISPECIAL">     0</i>
   <i type="logical" name="LMUSIC"> F  </i>
   <v name="POMASS">    114.82000000    106.42000000</v>
   <v name="DARWINR">      0.00000000      0.00000000</v>
   <v name="DARWINV">      1.00000000      1.00000000</v>
   <i type="logical" name="LCORR"> T  </i>
  </separator>
  <i type="logical" name="GGA_COMPAT"> T  </i>
  <i type="logical" name="LBERRY"> F  </i>
  <i type="int" name="ICORELEVEL">     0</i>
  <i type="logical" name="LDAU"> F  </i>
  <i type="int" name="I_CONSTRAINED_M">     0</i>
  <separator name="electronic exchange-correlation" >
   <i type="string" name="GGA">PE</i>
   <i type="int" name="VOSKOWN">     0</i>
   <i type="logical" name="LHFCALC"> F  </i>
   <i type="string" name="PRECFOCK"></i>
   <i type="logical" name="LSYMGRAD"> F  </i>
   <i type="logical" name="LHFONE"> F  </i>
   <i type="logical" name="LRHFCALC"> F  </i>
   <i type="logical" name="LTHOMAS"> F  </i>
   <i type="logical" name="LMODELHF"> F  </i>
   <i name="ENCUT4O">     -1.00000000</i>
   <i type="int" name="EXXOEP">     0</i>
   <i type="int" name="FOURORBIT">     0</i>
   <i name="AEXX">      0.00000000</i>
   <i name="HFALPHA">      0.00000000</i>
   <i name="MCALPHA">      0.00000000</i>
   <i name="ALDAX">      1.00000000</i>
   <i name="AGGAX">      1.00000000</i>
   <i name="ALDAC">      1.00000000</i>
   <i name="AGGAC">      1.00000000</i>
   <i type="int" name="NKREDX">     1</i>
   <i type="int" name="NKREDY">     1</i>
   <i type="int" name="NKREDZ">     1</i>
   <i type="logical" name="SHIFTRED"> F  </i>
   <i type="logical" name="ODDONLY"> F  </i>
   <i type="logical" name="EVENONLY"> F  </i>
   <i type="int" name="LMAXFOCK">     0</i>
   <i type="int" name="NMAXFOCKAE">     0</i>
   <i type="logical" name="LFOCKAEDFT"> F  </i>
   <i name="HFSCREEN">      0.00000000</i>
   <i name="HFSCREENC">      0.00000000</i>
   <i type="int" name="NBANDSGWLOW">     0</i>
  </separator>
  <separator name="vdW DFT" >
   <i type="logical" name="LUSE_VDW"> F  </i>
   <i name="Zab_VDW">     -0.84910000</i>
   <i name="PARAM1">      0.12340000</i>
   <i name="PARAM2">      1.00000000</i>
   <i name="PARAM3">      0.00000000</i>
  </separator>
  <separator name="model GW" >
   <i type="int" name="MODEL_GW">     0</i>
   <i name="MODEL_EPS0">     26.10829308</i>
   <i name="MODEL_ALPHA">      1.00000000</i>
  </separator>
  <separator name="linear response parameters" >
   <i type="logical" name="LEPSILON"> F  </i>
   <i type="logical" name="LRPA"> F  </i>
   <i type="logical" name="LNABLA"> F  </i>
   <i type="logical" name="LVEL"> F  </i>
   <i type="int" name="KINTER">     0</i>
   <i name="CSHIFT">      0.10000000</i>
   <i name="OMEGAMAX">     -1.00000000</i>
   <i name="DEG_THRESHOLD">      0.00200000</i>
   <i name="RTIME">     -0.10000000</i>
   <i name="WPLASMAI">      0.00000000</i>
   <v name="DFIELD">      0.00000000      0.00000000      0.00000000</v>
   <v name="WPLASMA">      0.00000000      0.00000000      0.00000000      0.00000000      0.00000000      0.00000000      0.00000000      0.00000000      0.00000000</v>
  </separator>
  <separator name="orbital magnetization" >
   <i type="logical" name="NUCIND"> F  </i>
   <v name="MAGPOS">      0.00000000      0.00000000      0.00000000</v>
   <i type="logical" name="LNICSALL"> T  </i>
   <i type="logical" name="ORBITALMAG"> F  </i>
   <i type="logical" name="LMAGBLOCH"> F  </i>
   <i type="logical" name="LCHIMAG"> F  </i>
   <i type="logical" name="LGAUGE"> T  </i>
   <i type="int" name="MAGATOM">     0</i>
   <v name="MAGDIPOL">      0.00000000      0.00000000      0.00000000</v>
   <v name="AVECCONST">      0.00000000      0.00000000      0.00000000</v>
  </separator>
  <separator name="response functions" >
   <i type="logical" name="LADDER"> F  </i>
   <i type="logical" name="LRPAFORCE"> F  </i>
   <i type="logical" name="LFXC"> F  </i>
   <i type="logical" name="LHARTREE"> T  </i>
   <i type="int" name="IBSE">     0</i>
   <v type="int" name="KPOINT">    -1     0     0     0</v>
   <i type="logical" name="LTCTE"> F  </i>
   <i type="logical" name="LTETE"> F  </i>
   <i type="logical" name="LTRIPLET"> F  </i>
   <i type="logical" name="LFXCEPS"> F  </i>
   <i type="logical" name="LFXHEG"> F  </i>
   <i type="int" name="NATURALO">     2</i>
   <i type="logical" name="L2ORDER"> F  </i>
   <i type="logical" name="LMP2LT"> F  </i>
   <i type="logical" name="LUSEW"> F  </i>
   <i name="ENCUTGW">     -2.00000000</i>
   <i name="ENCUTGWSOFT">     -2.00000000</i>
   <i name="ENCUTLF">     -1.00000000</i>
   <i type="int" name="LMAXMP2">    -1</i>
   <i name="SCISSOR">      0.00000000</i>
   <i type="int" name="NOMEGA">     0</i>
   <i type="int" name="NOMEGAR">     0</i>
   <i type="int" name="NBANDSGW">    -1</i>
   <i type="int" name="NBANDSO">    -1</i>
   <i type="int" name="NBANDSV">    -1</i>
   <i type="int" name="NELM">   100</i>
   <i type="int" name="NELMHF">     1</i>
   <i type="int" name="DIM">     3</i>
   <i type="int" name="ANTIRES">     0</i>
   <i name="OMEGAMAX">    -30.00000000</i>
   <i name="OMEGAMIN">    -30.00000000</i>
   <i name="OMEGATL">   -200.00000000</i>
   <i type="int" name="OMEGAGRID">   140</i>
   <i name="CSHIFT">     -0.10000000</i>
   <i type="logical" name="SELFENERGY"> F  </i>
   <i type="logical" name="LSPECTRAL"> F  </i>
   <i type="logical" name="LSPECTRALGW"> F  </i>
   <i type="logical" name="LSINGLES"> F  </i>
   <i type="logical" name="LFERMIGW"> F  </i>
   <i type="logical" name="ODDONLYGW"> F  </i>
   <i type="logical" name="EVENONLYGW"> F  </i>
   <i type="int" name="NKREDLFX">     1</i>
   <i type="int" name="NKREDLFY">     1</i>
   <i type="int" name="NKREDLFZ">     1</i>
   <i type="int" name="MAXMEM">  2800</i>
   <i type="int" name="TELESCOPE">     0</i>
   <i type="int" name="TAUPAR">     1</i>
   <i type="int" name="OMEGAPAR">    -1</i>
   <i name="LAMBDA">      1.00000000</i>
  </separator>
  <separator name="External order field" >
   <i name="OFIELD_KAPPA">      0.00000000</i>
   <v name="OFIELD_K">      0.00000000      0.00000000      0.00000000</v>
   <i name="OFIELD_Q6_NEAR">      0.00000000</i>
   <i name="OFIELD_Q6_FAR">      0.00000000</i>
   <i name="OFIELD_A">      0.00000000</i>
  </separator>
 </parameters>
 <atominfo>
  <atoms>      24 </atoms>
  <types>       2 </types>
  <array name="atoms" >
   <dimension dim="1">ion</dimension>
   <field type="string">element</field>
   <field type="int">atomtype</field>
   <set>
    <rc><c>In</c><c>   1</c></rc>
    <rc><c>In</c><c>   1</c></rc>
    <rc><c>In</c><c>   1</c></rc>
    <rc><c>In</c><c>   1</c></rc>
    <rc><c>In</c><c>   1</c></rc>
    <rc><c>In</c><c>   1</c></rc>
    <rc><c>In</c><c>   1</c></rc>
    <rc><c>In</c><c>   1</c></rc>
    <rc><c>Pd</c><c>   2</c></rc>
    <rc><c>Pd</c><c>   2</c></rc>
    <rc><c>Pd</c><c>   2</c></rc>
    <rc><c>Pd</c><c>   2</c></rc>
    <rc><c>Pd</c><c>   2</c></rc>
    <rc><c>Pd</c><c>   2</c></rc>
    <rc><c>Pd</c><c>   2</c></rc>
    <rc><c>Pd</c><c>   2</c></rc>
    <rc><c>Pd</c><c>   2</c></rc>
    <rc><c>Pd</c><c>   2</c></rc>
    <rc><c>Pd</c><c>   2</c></rc>
    <rc><c>Pd</c><c>   2</c></rc>
    <rc><c>Pd</c><c>   2</c></rc>
    <rc><c>Pd</c><c>   2</c></rc>
    <rc><c>Pd</c><c>   2</c></rc>
    <rc><c>Pd</c><c>   2</c></rc>
   </set>
  </array>
  <array name="atomtypes" >
   <dimension dim="1">type</dimension>
   <field type="int">atomspertype</field>
   <field type="string">element</field>
   <field>mass</field>
   <field>valence</field>
   <field type="string">pseudopotential</field>
   <set>
    <rc><c>   8</c><c>In</c><c>    114.82000000</c><c>      3.00000000</c><c>  PAW_PBE In 08Apr2002                  </c></rc>
    <rc><c>  16</c><c>Pd</c><c>    106.42000000</c><c>     10.00000000</c><c>  PAW_PBE Pd 04Jan2005                  </c></rc>
   </set>
  </array>
 </atominfo>
 <structure name="initialpos" >
  <crystal>
   <varray name="basis" >
    <v>       7.12360001       0.00000000       0.00000000 </v>
    <v>      -2.52484214       9.05736979       0.00000000 </v>
    <v>       0.00000000       0.00000000      16.18589973 </v>
   </varray>
   <i name="volume">   1044.33172306 </i>
   <varray name="rec_basis" >
    <v>       0.14037846       0.03913205       0.00000000 </v>
    <v>       0.00000000       0.11040733       0.00000000 </v>
    <v>       0.00000000       0.00000000       0.06178217 </v>
   </varray>
  </crystal>
  <varray name="positions" >
   <v>       0.18663999       0.86427999       0.05988000 </v>
   <v>       0.28696001       0.38490000       0.08790000 </v>
   <v>       0.62568998       0.19158000       0.09918000 </v>
   <v>       0.72549999       0.71184999       0.12715000 </v>
   <v>       0.88265997       0.00569000       0.25492001 </v>
   <v>       0.98298001       0.52631003       0.28294000 </v>
   <v>       0.32170999       0.33298001       0.29422000 </v>
   <v>       0.42151001       0.85325998       0.32218000 </v>
   <v>       0.94466001       0.29256999       0.00000000 </v>
   <v>       0.64916003       0.46002001       0.01303000 </v>
   <v>       0.40053001       0.66846001       0.02812000 </v>
   <v>       0.90309000       0.01169000       0.08416000 </v>
   <v>       0.00918000       0.56448001       0.10290000 </v>
   <v>       0.51166999       0.90785003       0.15886000 </v>
   <v>       0.26289999       0.11626000       0.17392001 </v>
   <v>       0.96789002       0.28365001       0.18714000 </v>
   <v>       0.64068002       0.43397999       0.19504000 </v>
   <v>       0.34516999       0.60141999       0.20807000 </v>
   <v>       0.09655000       0.80987000       0.22316000 </v>
   <v>       0.59911001       0.15310000       0.27919999 </v>
   <v>       0.70520002       0.70587999       0.29793999 </v>
   <v>       0.20769000       0.04925000       0.35389999 </v>
   <v>       0.95892000       0.25766999       0.36895001 </v>
   <v>       0.66390997       0.42506000       0.38218001 </v>
  </varray>
  <varray name="selective"  type="logical" >
   <v type="logical" >  F  F  F </v>
   <v type="logical" >  F  F  F </v>
   <v type="logical" >  F  F  F </v>
   <v type="logical" >  F  F  F </v>
   <v type="logical" >  T  T  T </v>
   <v type="logical" >  T  T  T </v>
   <v type="logical" >  T  T  T </v>
   <v type="logical" >  T  T  T </v>
   <v type="logical" >  F  F  F </v>
   <v type="logical" >  F  F  F </v>
   <v type="logical" >  F  F  F </v>
   <v type="logical" >  F  F  F </v>
   <v type="logical" >  F  F  F </v>
   <v type="logical" >  F  F  F </v>
   <v type="logical" >  F  F  F </v>
   <v type="logical" >  F  F  F </v>
   <v type="logical" >  T  T  T </v>
   <v type="logical" >  T  T  T </v>
   <v type="logical" >  T  T  T </v>
   <v type="logical" >  T  T  T </v>
   <v type="logical" >  T  T  T </v>
   <v type="logical" >  T  T  T </v>
   <v type="logical" >  T  T  T </v>
   <v type="logical" >  T  T  T </v>
  </varray>
  <nose>
   <v>      -3.00000000       0.00000000       0.00010000       0.00010000 </v>
  </nose>
 </structure>
 <calculation>
  <scstep>
   <time name="dav">   25.18   25.23</time>
   <time name="total">   25.45   25.51</time>
   <dipole>
    <v name="dipole">      0.00000000       0.00000000      -0.00012017 </v>
    <i name="Tr[quadrupol]">  -2139.23353959 </i>
    <i name="Echarged">      0.00000000 </i>
    <i name="Edipol_quadrupol">      0.00000000 </i>
    <i name="Eion">      0.00000000 </i>
   </dipole>
   <energy>
    <i name="alphaZ">    182.24868444 </i>
    <i name="ewald">  11149.23115453 </i>
    <i name="hartreedc"> -24848.05494255 </i>
    <i name="XCdc">   -922.50011326 </i>
    <i name="pawpsdc">  13661.59498581 </i>
    <i name="pawaedc"> -12191.00304961 </i>
    <i name="eentropy">     -0.00974195 </i>
    <i name="bandstr">    621.99203000 </i>
    <i name="atom">  13386.29214936 </i>
    <i name="e_fr_energy">   1039.79115677 </i>
    <i name="e_wo_entrp">   1039.80089872 </i>
    <i name="e_0_energy">   1039.79602774 </i>
   </energy>
  </scstep>
  <scstep>
   <time name="dav">   28.75   28.82</time>
   <time name="total">   28.75   28.82</time>
   <dipole>
    <v name="dipole">      0.00000000       0.00000000      -0.00012017 </v>
    <i name="Tr[quadrupol]">  -2139.23353959 </i>
    <i name="Echarged">      0.00000000 </i>
    <i name="Edipol_quadrupol">      0.00000000 </i>
    <i name="Eion">      0.00000000 </i>
   </dipole>
   <energy>
    <i name="e_fr_energy">    -34.78695091 </i>
    <i name="e_wo_entrp">    -34.78088904 </i>
    <i name="e_0_energy">    -34.78391997 </i>
   </energy>
  </scstep>
  <scstep>
   <time name="dav">   28.67   28.73</time>
   <time name="total">   28.67   28.73</time>
   <dipole>
    <v name="dipole">      0.00000000       0.00000000      -0.00012017 </v>
    <i name="Tr[quadrupol]">  -2139.23353959 </i>
    <i name="Echarged">      0.00000000 </i>
    <i name="Edipol_quadrupol">      0.00000000 </i>
    <i name="Eion">      0.00000000 </i>
   </dipole>
   <energy>
    <i name="e_fr_energy">   -107.63495409 </i>
    <i name="e_wo_entrp">   -107.62934143 </i>
    <i name="e_0_energy">   -107.63214776 </i>
   </energy>
  </scstep>
  <scstep>
   <time name="dav">   29.50   29.56</time>
   <time name="total">   29.50   29.56</time>
   <dipole>
    <v name="dipole">      0.00000000       0.00000000      -0.00012017 </v>
    <i name="Tr[quadrupol]">  -2139.23353959 </i>
    <i name="Echarged">      0.00000000 </i>
    <i name="Edipol_quadrupol">      0.00000000 </i>
    <i name="Eion">      0.00000000 </i>
   </dipole>
   <energy>
    <i name="e_fr_energy">   -109.63466614 </i>
    <i name="e_wo_entrp">   -109.62927105 </i>
    <i name="e_0_energy">   -109.63196860 </i>
   </energy>
  </scstep>
  <scstep>
   <time name="dav">   30.21   30.27</time>
   <time name="total">   30.22   30.28</time>
   <dipole>
    <v name="dipole">      0.00000000       0.00000000      -0.00012017 </v>
    <i name="Tr[quadrupol]">  -2139.23353959 </i>
    <i name="Echarged">      0.00000000 </i>
    <i name="Edipol_quadrupol">      0.00000000 </i>
    <i name="Eion">      0.00000000 </i>
   </dipole>
   <energy>
    <i name="e_fr_energy">   -109.69870054 </i>
    <i name="e_wo_entrp">   -109.69333076 </i>
    <i name="e_0_energy">   -109.69601565 </i>
   </energy>
  </scstep>
  <scstep>
   <time name="dav">   32.13   32.20</time>
   <time name="total">   32.13   32.20</time>
   <dipole>
    <v name="dipole">      0.00000000       0.00000000      -0.00012017 </v>
    <i name="Tr[quadrupol]">  -2139.23353959 </i>
    <i name="Echarged">      0.00000000 </i>
    <i name="Edipol_quadrupol">      0.00000000 </i>
    <i name="Eion">      0.00000000 </i>
   </dipole>
   <energy>
    <i name="e_fr_energy">   -109.70200308 </i>
    <i name="e_wo_entrp">   -109.69663575 </i>
    <i name="e_0_energy">   -109.69931942 </i>
   </energy>
  </scstep>
  <scstep>
   <time name="dav">   29.70   29.76</time>
   <time name="total">   30.72   30.79</time>
   <dipole>
    <v name="dipole">      0.00000000       0.00000000      -0.00012017 </v>
    <i name="Tr[quadrupol]">  -2139.23353959 </i>
    <i name="Echarged">      0.00000000 </i>
    <i name="Edipol_quadrupol">      0.00000000 </i>
    <i name="Eion">      0.00000000 </i>
   </dipole>
   <energy>
    <i name="e_fr_energy">   -109.70208574 </i>
    <i name="e_wo_entrp">   -109.69671841 </i>
    <i name="e_0_energy">   -109.69940208 </i>
   </energy>
  </scstep>
  <scstep>
   <time name="diag">    4.40    4.41</time>
   <time name="diis">   11.88   11.91</time>
   <time name="orth">    0.95    0.96</time>
   <time name="total">   18.49   18.53</time>
   <dipole>
    <v name="dipole">      0.00000000       0.00000000       0.00034979 </v>
    <i name="Tr[quadrupol]">  -2139.59405295 </i>
    <i name="Echarged">      0.00000000 </i>
    <i name="Edipol_quadrupol">      0.00000000 </i>
    <i name="Eion">      0.00000000 </i>
   </dipole>
   <energy>
    <i name="e_fr_energy">   -109.23693134 </i>
    <i name="e_wo_entrp">   -109.23125874 </i>
    <i name="e_0_energy">   -109.23409504 </i>
   </energy>
  </scstep>
  <scstep>
   <time name="diag">    4.39    4.40</time>
   <time name="diis">   11.80   11.82</time>
   <time name="orth">    0.96    0.96</time>
   <time name="total">   18.38   18.42</time>
   <dipole>
    <v name="dipole">      0.00000000       0.00000000       0.01276615 </v>
    <i name="Tr[quadrupol]">  -2142.90783854 </i>
    <i name="Echarged">      0.00000000 </i>
    <i name="Edipol_quadrupol">      0.00000000 </i>
    <i name="Eion">      0.00000000 </i>
   </dipole>
   <energy>
    <i name="e_fr_energy">   -106.51363594 </i>
    <i name="e_wo_entrp">   -106.50551580 </i>
    <i name="e_0_energy">   -106.50957587 </i>
   </energy>
  </scstep>
  <scstep>
   <time name="diag">    4.39    4.40</time>
   <time name="diis">   11.70   11.72</time>
   <time name="orth">    0.96    0.96</time>
   <time name="total">   18.29   18.33</time>
   <dipole>
    <v name="dipole">      0.00000000       0.00000000      -0.02135189 </v>
    <i name="Tr[quadrupol]">  -2143.68657964 </i>
    <i name="Echarged">      0.00000000 </i>
    <i name="Edipol_quadrupol">      0.00000000 </i>
    <i name="Eion">      0.00000000 </i>
   </dipole>
   <energy>
    <i name="e_fr_energy">   -106.14323731 </i>
    <i name="e_wo_entrp">   -106.13425694 </i>
    <i name="e_0_energy">   -106.13874713 </i>
   </energy>
  </scstep>
  <scstep>
   <time name="diag">    4.38    4.39</time>
   <time name="diis">   11.75   11.78</time>
   <time name="orth">    0.96    0.96</time>
   <time name="total">   18.34   18.38</time>
   <dipole>
    <v name="dipole">      0.00000000       0.00000000      -0.04766027 </v>
    <i name="Tr[quadrupol]">  -2144.72888979 </i>
    <i name="Echarged">      0.00000000 </i>
    <i name="Edipol_quadrupol">      0.00000000 </i>
    <i name="Eion">      0.00000000 </i>
   </dipole>
   <energy>
    <i name="e_fr_energy">   -105.80485361 </i>
    <i name="e_wo_entrp">   -105.79611910 </i>
    <i name="e_0_energy">   -105.80048636 </i>
   </energy>
  </scstep>
  <scstep>
   <time name="diag">    4.39    4.40</time>
   <time name="diis">   11.66   11.68</time>
   <time name="orth">    0.96    0.96</time>
   <time name="total">   18.27   18.31</time>
   <dipole>
    <v name="dipole">      0.00000000       0.00000000       0.02940234 </v>
    <i name="Tr[quadrupol]">  -2145.21939502 </i>
    <i name="Echarged">      0.00000000 </i>
    <i name="Edipol_quadrupol">      0.00000000 </i>
    <i name="Eion">      0.00000000 </i>
   </dipole>
   <energy>
    <i name="e_fr_energy">   -105.70526065 </i>
    <i name="e_wo_entrp">   -105.69650897 </i>
    <i name="e_0_energy">   -105.70088481 </i>
   </energy>
  </scstep>
  <scstep>
   <time name="diag">    4.39    4.40</time>
   <time name="diis">   11.67   11.69</time>
   <time name="orth">    0.97    0.97</time>
   <time name="total">   18.28   18.32</time>
   <dipole>
    <v name="dipole">      0.00000000       0.00000000      -0.04315519 </v>
    <i name="Tr[quadrupol]">  -2145.50188709 </i>
    <i name="Echarged">      0.00000000 </i>
    <i name="Edipol_quadrupol">      0.00000000 </i>
    <i name="Eion">      0.00000000 </i>
   </dipole>
   <energy>
    <i name="e_fr_energy">   -105.65884918 </i>
    <i name="e_wo_entrp">   -105.65011951 </i>
    <i name="e_0_energy">   -105.65448435 </i>
   </energy>
  </scstep>
  <scstep>
   <time name="diag">    4.40    4.41</time>
   <time name="diis">   11.85   11.87</time>
   <time name="orth">    0.96    0.96</time>
   <time name="total">   18.45   18.49</time>
   <dipole>
    <v name="dipole">      0.00000000       0.00000000      -0.08493262 </v>
    <i name="Tr[quadrupol]">  -2146.18884359 </i>
    <i name="Echarged">      0.00000000 </i>
    <i name="Edipol_quadrupol">      0.00000000 </i>
    <i name="Eion">      0.00000000 </i>
   </dipole>
   <energy>
    <i name="e_fr_energy">   -105.58033878 </i>
    <i name="e_wo_entrp">   -105.57179714 </i>
    <i name="e_0_energy">   -105.57606796 </i>
   </energy>
  </scstep>
  <scstep>
   <time name="diag">    4.41    4.42</time>
   <time name="diis">   11.78   11.81</time>
   <time name="orth">    0.96    0.97</time>
   <time name="total">   18.41   18.45</time>
   <dipole>
    <v name="dipole">      0.00000000       0.00000000       0.04068334 </v>
    <i name="Tr[quadrupol]">  -2146.89225458 </i>
    <i name="Echarged">      0.00000000 </i>
    <i name="Edipol_quadrupol">      0.00000000 </i>
    <i name="Eion">      0.00000000 </i>
   </dipole>
   <energy>
    <i name="e_fr_energy">   -105.54469324 </i>
    <i name="e_wo_entrp">   -105.53634133 </i>
    <i name="e_0_energy">   -105.54051729 </i>
   </energy>
  </scstep>
  <scstep>
   <time name="diag">    4.39    4.40</time>
   <time name="diis">   11.92   11.95</time>
   <time name="orth">    0.97    0.97</time>
   <time name="total">   18.56   18.59</time>
   <dipole>
    <v name="dipole">      0.00000000       0.00000000       0.08073009 </v>
    <i name="Tr[quadrupol]">  -2147.03711323 </i>
    <i name="Echarged">      0.00000000 </i>
    <i name="Edipol_quadrupol">      0.00000000 </i>
    <i name="Eion">      0.00000000 </i>
   </dipole>
   <energy>
    <i name="e_fr_energy">   -105.54861016 </i>
    <i name="e_wo_entrp">   -105.54019395 </i>
    <i name="e_0_energy">   -105.54440206 </i>
   </energy>
  </scstep>
  <scstep>
   <time name="diag">    4.39    4.40</time>
   <time name="diis">   11.89   11.91</time>
   <time name="orth">    0.97    0.97</time>
   <time name="total">   18.50   18.54</time>
   <dipole>
    <v name="dipole">      0.00000000       0.00000000       0.06599271 </v>
    <i name="Tr[quadrupol]">  -2147.12589623 </i>
    <i name="Echarged">      0.00000000 </i>
    <i name="Edipol_quadrupol">      0.00000000 </i>
    <i name="Eion">      0.00000000 </i>
   </dipole>
   <energy>
    <i name="e_fr_energy">   -105.53097059 </i>
    <i name="e_wo_entrp">   -105.52228503 </i>
    <i name="e_0_energy">   -105.52662781 </i>
   </energy>
  </scstep>
  <scstep>
   <time name="diag">    4.41    4.42</time>
   <time name="diis">   11.76   11.79</time>
   <time name="orth">    0.96    0.96</time>
   <time name="total">   18.41   18.45</time>
   <dipole>
    <v name="dipole">      0.00000000       0.00000000      -0.05529727 </v>
    <i name="Tr[quadrupol]">  -2147.21451492 </i>
    <i name="Echarged">      0.00000000 </i>
    <i name="Edipol_quadrupol">      0.00000000 </i>
    <i name="Eion">      0.00000000 </i>
   </dipole>
   <energy>
    <i name="e_fr_energy">   -105.53550162 </i>
    <i name="e_wo_entrp">   -105.52692819 </i>
    <i name="e_0_energy">   -105.53121491 </i>
   </energy>
  </scstep>
  <scstep>
   <time name="diag">    4.38    4.39</time>
   <time name="diis">   12.06   12.08</time>
   <time name="orth">    0.97    0.97</time>
   <time name="total">   18.66   18.69</time>
   <dipole>
    <v name="dipole">      0.00000000       0.00000000       0.00450448 </v>
    <i name="Tr[quadrupol]">  -2147.48714057 </i>
    <i name="Echarged">      0.00000000 </i>
    <i name="Edipol_quadrupol">      0.00000000 </i>
    <i name="Eion">      0.00000000 </i>
   </dipole>
   <energy>
    <i name="e_fr_energy">   -105.52448575 </i>
    <i name="e_wo_entrp">   -105.51577772 </i>
    <i name="e_0_energy">   -105.52013173 </i>
   </energy>
  </scstep>
  <scstep>
   <time name="diag">    4.40    4.41</time>
   <time name="diis">   11.75   11.78</time>
   <time name="orth">    0.96    0.96</time>
   <time name="total">   18.38   18.42</time>
   <dipole>
    <v name="dipole">      0.00000000       0.00000000       0.04174021 </v>
    <i name="Tr[quadrupol]">  -2147.60609664 </i>
    <i name="Echarged">      0.00000000 </i>
    <i name="Edipol_quadrupol">      0.00000000 </i>
    <i name="Eion">      0.00000000 </i>
   </dipole>
   <energy>
    <i name="e_fr_energy">   -105.52331616 </i>
    <i name="e_wo_entrp">   -105.51466476 </i>
    <i name="e_0_energy">   -105.51899046 </i>
   </energy>
  </scstep>
  <scstep>
   <time name="diag">    4.38    4.39</time>
   <time name="diis">   11.79   11.81</time>
   <time name="orth">    0.97    0.97</time>
   <time name="total">   18.42   18.46</time>
   <dipole>
    <v name="dipole">      0.00000000       0.00000000      -0.05978126 </v>
    <i name="Tr[quadrupol]">  -2147.98604606 </i>
    <i name="Echarged">      0.00000000 </i>
    <i name="Edipol_quadrupol">      0.00000000 </i>
    <i name="Eion">      0.00000000 </i>
   </dipole>
   <energy>
    <i name="e_fr_energy">   -105.53870175 </i>
    <i name="e_wo_entrp">   -105.53039555 </i>
    <i name="e_0_energy">   -105.53454865 </i>
   </energy>
  </scstep>
  <scstep>
   <time name="diag">    4.38    4.39</time>
   <time name="diis">   11.92   11.95</time>
   <time name="orth">    0.97    0.97</time>
   <time name="total">   18.52   18.57</time>
   <dipole>
    <v name="dipole">      0.00000000       0.00000000      -0.08434411 </v>
    <i name="Tr[quadrupol]">  -2148.17234779 </i>
    <i name="Echarged">      0.00000000 </i>
    <i name="Edipol_quadrupol">      0.00000000 </i>
    <i name="Eion">      0.00000000 </i>
   </dipole>
   <energy>
    <i name="e_fr_energy">   -105.53993681 </i>
    <i name="e_wo_entrp">   -105.53161286 </i>
    <i name="e_0_energy">   -105.53577483 </i>
   </energy>
  </scstep>
  <scstep>
   <time name="diag">    4.39    4.40</time>
   <time name="diis">   11.98   12.00</time>
   <time name="orth">    0.96    0.97</time>
   <time name="total">   18.59   18.62</time>
   <dipole>
    <v name="dipole">      0.00000000       0.00000000      -0.07299055 </v>
    <i name="Tr[quadrupol]">  -2148.49899644 </i>
    <i name="Echarged">      0.00000000 </i>
    <i name="Edipol_quadrupol">      0.00000000 </i>
    <i name="Eion">      0.00000000 </i>
   </dipole>
   <energy>
    <i name="e_fr_energy">   -105.53329748 </i>
    <i name="e_wo_entrp">   -105.52496397 </i>
    <i name="e_0_energy">   -105.52913073 </i>
   </energy>
  </scstep>
  <scstep>
   <time name="diag">    4.40    4.42</time>
   <time name="diis">   11.82   11.84</time>
   <time name="orth">    0.97    0.97</time>
   <time name="total">   18.46   18.50</time>
   <dipole>
    <v name="dipole">      0.00000000       0.00000000      -0.06865044 </v>
    <i name="Tr[quadrupol]">  -2148.65482629 </i>
    <i name="Echarged">      0.00000000 </i>
    <i name="Edipol_quadrupol">      0.00000000 </i>
    <i name="Eion">      0.00000000 </i>
   </dipole>
   <energy>
    <i name="e_fr_energy">   -105.53025999 </i>
    <i name="e_wo_entrp">   -105.52192227 </i>
    <i name="e_0_energy">   -105.52609113 </i>
   </energy>
  </scstep>
  <scstep>
   <time name="diag">    4.40    4.41</time>
   <time name="diis">   11.68   11.70</time>
   <time name="orth">    0.96    0.97</time>
   <time name="total">   18.29   18.33</time>
   <dipole>
    <v name="dipole">      0.00000000       0.00000000      -0.01091224 </v>
    <i name="Tr[quadrupol]">  -2148.81947872 </i>
    <i name="Echarged">      0.00000000 </i>
    <i name="Edipol_quadrupol">      0.00000000 </i>
    <i name="Eion">      0.00000000 </i>
   </dipole>
   <energy>
    <i name="e_fr_energy">   -105.53104957 </i>
    <i name="e_wo_entrp">   -105.52265155 </i>
    <i name="e_0_energy">   -105.52685056 </i>
   </energy>
  </scstep>
  <scstep>
   <time name="diag">    4.39    4.40</time>
   <time name="diis">   11.71   11.73</time>
   <time name="orth">    0.96    0.96</time>
   <time name="total">   18.34   18.38</time>
   <dipole>
    <v name="dipole">      0.00000000       0.00000000       0.02004365 </v>
    <i name="Tr[quadrupol]">  -2148.94483693 </i>
    <i name="Echarged">      0.00000000 </i>
    <i name="Edipol_quadrupol">      0.00000000 </i>
    <i name="Eion">      0.00000000 </i>
   </dipole>
   <energy>
    <i name="e_fr_energy">   -105.53988129 </i>
    <i name="e_wo_entrp">   -105.53161166 </i>
    <i name="e_0_energy">   -105.53574647 </i>
   </energy>
  </scstep>
  <scstep>
   <time name="diag">    4.40    4.41</time>
   <time name="diis">   11.94   11.97</time>
   <time name="orth">    0.96    0.96</time>
   <time name="total">   18.58   18.61</time>
   <dipole>
    <v name="dipole">      0.00000000       0.00000000       0.01555066 </v>
    <i name="Tr[quadrupol]">  -2148.97648228 </i>
    <i name="Echarged">      0.00000000 </i>
    <i name="Edipol_quadrupol">      0.00000000 </i>
    <i name="Eion">      0.00000000 </i>
   </dipole>
   <energy>
    <i name="e_fr_energy">   -105.53697088 </i>
    <i name="e_wo_entrp">   -105.52864415 </i>
    <i name="e_0_energy">   -105.53280751 </i>
   </energy>
  </scstep>
  <scstep>
   <time name="diag">    4.37    4.38</time>
   <time name="diis">   11.71   11.74</time>
   <time name="orth">    0.96    0.97</time>
   <time name="total">   18.30   18.33</time>
   <dipole>
    <v name="dipole">      0.00000000       0.00000000       0.01148035 </v>
    <i name="Tr[quadrupol]">  -2149.02252693 </i>
    <i name="Echarged">      0.00000000 </i>
    <i name="Edipol_quadrupol">      0.00000000 </i>
    <i name="Eion">      0.00000000 </i>
   </dipole>
   <energy>
    <i name="e_fr_energy">   -105.53484521 </i>
    <i name="e_wo_entrp">   -105.52646554 </i>
    <i name="e_0_energy">   -105.53065537 </i>
   </energy>
  </scstep>
  <scstep>
   <time name="diag">    4.39    4.40</time>
   <time name="diis">   11.83   11.85</time>
   <time name="orth">    0.96    0.96</time>
   <time name="total">   18.45   18.49</time>
   <dipole>
    <v name="dipole">      0.00000000       0.00000000       0.00885545 </v>
    <i name="Tr[quadrupol]">  -2149.06276093 </i>
    <i name="Echarged">      0.00000000 </i>
    <i name="Edipol_quadrupol">      0.00000000 </i>
    <i name="Eion">      0.00000000 </i>
   </dipole>
   <energy>
    <i name="e_fr_energy">   -105.53408259 </i>
    <i name="e_wo_entrp">   -105.52567189 </i>
    <i name="e_0_energy">   -105.52987724 </i>
   </energy>
  </scstep>
  <scstep>
   <time name="diag">    4.42    4.43</time>
   <time name="diis">   11.70   11.72</time>
   <time name="orth">    0.96    0.97</time>
   <time name="total">   18.35   18.39</time>
   <dipole>
    <v name="dipole">      0.00000000       0.00000000       0.00251636 </v>
    <i name="Tr[quadrupol]">  -2149.11058217 </i>
    <i name="Echarged">      0.00000000 </i>
    <i name="Edipol_quadrupol">      0.00000000 </i>
    <i name="Eion">      0.00000000 </i>
   </dipole>
   <energy>
    <i name="e_fr_energy">   -105.53362720 </i>
    <i name="e_wo_entrp">   -105.52521281 </i>
    <i name="e_0_energy">   -105.52942000 </i>
   </energy>
  </scstep>
  <scstep>
   <time name="diag">    4.40    4.41</time>
   <time name="diis">   11.84   11.87</time>
   <time name="orth">    0.96    0.96</time>
   <time name="total">   18.48   18.52</time>
   <dipole>
    <v name="dipole">      0.00000000       0.00000000       0.00330637 </v>
    <i name="Tr[quadrupol]">  -2149.13440009 </i>
    <i name="Echarged">      0.00000000 </i>
    <i name="Edipol_quadrupol">      0.00000000 </i>
    <i name="Eion">      0.00000000 </i>
   </dipole>
   <energy>
    <i name="e_fr_energy">   -105.53394877 </i>
    <i name="e_wo_entrp">   -105.52553777 </i>
    <i name="e_0_energy">   -105.52974327 </i>
   </energy>
  </scstep>
  <scstep>
   <time name="diag">    4.39    4.40</time>
   <time name="diis">   11.81   11.84</time>
   <time name="orth">    0.96    0.96</time>
   <time name="total">   18.45   18.49</time>
   <dipole>
    <v name="dipole">      0.00000000       0.00000000      -0.00077698 </v>
    <i name="Tr[quadrupol]">  -2149.18289378 </i>
    <i name="Echarged">      0.00000000 </i>
    <i name="Edipol_quadrupol">      0.00000000 </i>
    <i name="Eion">      0.00000000 </i>
   </dipole>
   <energy>
    <i name="e_fr_energy">   -105.53417103 </i>
    <i name="e_wo_entrp">   -105.52574788 </i>
    <i name="e_0_energy">   -105.52995945 </i>
   </energy>
  </scstep>
  <scstep>
   <time name="diag">    4.39    4.40</time>
   <time name="diis">    8.00    8.01</time>
   <time name="orth">    0.96    0.96</time>
   <time name="total">   14.62   14.65</time>
   <dipole>
    <v name="dipole">      0.00000000       0.00000000      -0.00140136 </v>
    <i name="Tr[quadrupol]">  -2149.21004302 </i>
    <i name="Echarged">      0.00000000 </i>
    <i name="Edipol_quadrupol">      0.00000000 </i>
    <i name="Eion">      0.00000000 </i>
   </dipole>
   <energy>
    <i name="e_fr_energy">   -105.53419620 </i>
    <i name="e_wo_entrp">   -105.52577825 </i>
    <i name="e_0_energy">   -105.52998723 </i>
   </energy>
  </scstep>
  <scstep>
   <time name="diag">    4.41    4.42</time>
   <time name="diis">   11.78   11.80</time>
   <time name="orth">    0.97    0.97</time>
   <time name="total">   18.42   18.46</time>
   <dipole>
    <v name="dipole">      0.00000000       0.00000000       0.00190617 </v>
    <i name="Tr[quadrupol]">  -2149.25572731 </i>
    <i name="Echarged">      0.00000000 </i>
    <i name="Edipol_quadrupol">      0.00000000 </i>
    <i name="Eion">      0.00000000 </i>
   </dipole>
   <energy>
    <i name="e_fr_energy">   -105.53436514 </i>
    <i name="e_wo_entrp">   -105.52594803 </i>
    <i name="e_0_energy">   -105.53015659 </i>
   </energy>
  </scstep>
  <scstep>
   <time name="diag">    4.40    4.41</time>
   <time name="diis">    7.84    7.86</time>
   <time name="orth">    0.95    0.95</time>
   <time name="total">   14.47   14.50</time>
   <dipole>
    <v name="dipole">      0.00000000       0.00000000       0.00147865 </v>
    <i name="Tr[quadrupol]">  -2149.26438793 </i>
    <i name="Echarged">      0.00000000 </i>
    <i name="Edipol_quadrupol">      0.00000000 </i>
    <i name="Eion">      0.00000000 </i>
   </dipole>
   <energy>
    <i name="e_fr_energy">   -105.53438547 </i>
    <i name="e_wo_entrp">   -105.52596740 </i>
    <i name="e_0_energy">   -105.53017644 </i>
   </energy>
  </scstep>
  <scstep>
   <time name="diag">    4.39    4.40</time>
   <time name="diis">    9.63    9.65</time>
   <time name="orth">    0.96    0.96</time>
   <time name="total">   16.27   16.30</time>
   <dipole>
    <v name="dipole">      0.00000000       0.00000000      -0.00666890 </v>
    <i name="Tr[quadrupol]">  -2149.28822452 </i>
    <i name="Echarged">      0.00000000 </i>
    <i name="Edipol_quadrupol">      0.00000000 </i>
    <i name="Eion">      0.00000000 </i>
   </dipole>
   <energy>
    <i name="e_fr_energy">   -105.53452145 </i>
    <i name="e_wo_entrp">   -105.52610547 </i>
    <i name="e_0_energy">   -105.53031346 </i>
   </energy>
  </scstep>
  <scstep>
   <time name="diag">    4.41    4.42</time>
   <time name="diis">    7.58    7.59</time>
   <time name="orth">    0.96    0.97</time>
   <time name="total">   14.24   14.27</time>
   <dipole>
    <v name="dipole">      0.00000000       0.00000000      -0.00990724 </v>
    <i name="Tr[quadrupol]">  -2149.29325544 </i>
    <i name="Echarged">      0.00000000 </i>
    <i name="Edipol_quadrupol">      0.00000000 </i>
    <i name="Eion">      0.00000000 </i>
   </dipole>
   <energy>
    <i name="e_fr_energy">   -105.53459784 </i>
    <i name="e_wo_entrp">   -105.52618181 </i>
    <i name="e_0_energy">   -105.53038983 </i>
   </energy>
  </scstep>
  <scstep>
   <time name="diag">    4.38    4.39</time>
   <time name="diis">    7.97    7.99</time>
   <time name="orth">    0.97    0.97</time>
   <time name="total">   14.60   14.63</time>
   <dipole>
    <v name="dipole">      0.00000000       0.00000000      -0.00661412 </v>
    <i name="Tr[quadrupol]">  -2149.31067281 </i>
    <i name="Echarged">      0.00000000 </i>
    <i name="Edipol_quadrupol">      0.00000000 </i>
    <i name="Eion">      0.00000000 </i>
   </dipole>
   <energy>
    <i name="e_fr_energy">   -105.53465313 </i>
    <i name="e_wo_entrp">   -105.52623600 </i>
    <i name="e_0_energy">   -105.53044456 </i>
   </energy>
  </scstep>
  <scstep>
   <time name="diag">    4.37    4.38</time>
   <time name="diis">    7.71    7.73</time>
   <time name="orth">    0.97    0.97</time>
   <time name="total">   14.36   14.39</time>
   <dipole>
    <v name="dipole">      0.00000000       0.00000000      -0.00519120 </v>
    <i name="Tr[quadrupol]">  -2149.31942346 </i>
    <i name="Echarged">      0.00000000 </i>
    <i name="Edipol_quadrupol">      0.00000000 </i>
    <i name="Eion">      0.00000000 </i>
   </dipole>
   <energy>
    <i name="e_fr_energy">   -105.53468608 </i>
    <i name="e_wo_entrp">   -105.52626857 </i>
    <i name="e_0_energy">   -105.53047732 </i>
   </energy>
  </scstep>
  <scstep>
   <time name="diag">    4.37    4.38</time>
   <time name="diis">    7.81    7.82</time>
   <time name="orth">    0.97    0.97</time>
   <time name="total">   14.42   14.46</time>
   <dipole>
    <v name="dipole">      0.00000000       0.00000000      -0.00445987 </v>
    <i name="Tr[quadrupol]">  -2149.32945250 </i>
    <i name="Echarged">      0.00000000 </i>
    <i name="Edipol_quadrupol">      0.00000000 </i>
    <i name="Eion">      0.00000000 </i>
   </dipole>
   <energy>
    <i name="e_fr_energy">   -105.53475821 </i>
    <i name="e_wo_entrp">   -105.52634214 </i>
    <i name="e_0_energy">   -105.53055018 </i>
   </energy>
  </scstep>
  <scstep>
   <time name="diag">    4.38    4.39</time>
   <time name="diis">    7.71    7.72</time>
   <time name="orth">    0.97    0.97</time>
   <time name="total">   14.34   14.37</time>
   <dipole>
    <v name="dipole">      0.00000000       0.00000000      -0.00330804 </v>
    <i name="Tr[quadrupol]">  -2149.33647769 </i>
    <i name="Echarged">      0.00000000 </i>
    <i name="Edipol_quadrupol">      0.00000000 </i>
    <i name="Eion">      0.00000000 </i>
   </dipole>
   <energy>
    <i name="e_fr_energy">   -105.53482055 </i>
    <i name="e_wo_entrp">   -105.52640272 </i>
    <i name="e_0_energy">   -105.53061163 </i>
   </energy>
  </scstep>
  <scstep>
   <time name="diag">    4.38    4.39</time>
   <time name="diis">    7.71    7.72</time>
   <time name="orth">    0.97    0.97</time>
   <time name="total">   14.35   14.39</time>
   <dipole>
    <v name="dipole">      0.00000000       0.00000000      -0.00225570 </v>
    <i name="Tr[quadrupol]">  -2149.34158355 </i>
    <i name="Echarged">      0.00000000 </i>
    <i name="Edipol_quadrupol">      0.00000000 </i>
    <i name="Eion">      0.00000000 </i>
   </dipole>
   <energy>
    <i name="e_fr_energy">   -105.53488760 </i>
    <i name="e_wo_entrp">   -105.52647201 </i>
    <i name="e_0_energy">   -105.53067981 </i>
   </energy>
  </scstep>
  <scstep>
   <time name="diag">    4.37    4.38</time>
   <time name="diis">    7.71    7.72</time>
   <time name="orth">    0.97    0.97</time>
   <time name="total">   14.33   14.36</time>
   <dipole>
    <v name="dipole">      0.00000000       0.00000000       0.00055281 </v>
    <i name="Tr[quadrupol]">  -2149.34802388 </i>
    <i name="Echarged">      0.00000000 </i>
    <i name="Edipol_quadrupol">      0.00000000 </i>
    <i name="Eion">      0.00000000 </i>
   </dipole>
   <energy>
    <i name="e_fr_energy">   -105.53495413 </i>
    <i name="e_wo_entrp">   -105.52653802 </i>
    <i name="e_0_energy">   -105.53074607 </i>
   </energy>
  </scstep>
  <scstep>
   <time name="diag">    4.39    4.40</time>
   <time name="diis">    6.66    6.68</time>
   <time name="orth">    0.97    0.97</time>
   <time name="total">   13.32   13.35</time>
   <dipole>
    <v name="dipole">      0.00000000       0.00000000       0.00041129 </v>
    <i name="Tr[quadrupol]">  -2149.35028350 </i>
    <i name="Echarged">      0.00000000 </i>
    <i name="Edipol_quadrupol">      0.00000000 </i>
    <i name="Eion">      0.00000000 </i>
   </dipole>
   <energy>
    <i name="e_fr_energy">   -105.53496959 </i>
    <i name="e_wo_entrp">   -105.52655365 </i>
    <i name="e_0_energy">   -105.53076162 </i>
   </energy>
  </scstep>
  <scstep>
   <time name="diag">    4.38    4.39</time>
   <time name="diis">    7.73    7.75</time>
   <time name="orth">    0.97    0.97</time>
   <time name="total">   14.39   14.42</time>
   <dipole>
    <v name="dipole">      0.00000000       0.00000000       0.00062855 </v>
    <i name="Tr[quadrupol]">  -2149.35475760 </i>
    <i name="Echarged">      0.00000000 </i>
    <i name="Edipol_quadrupol">      0.00000000 </i>
    <i name="Eion">      0.00000000 </i>
   </dipole>
   <energy>
    <i name="e_fr_energy">   -105.53501048 </i>
    <i name="e_wo_entrp">   -105.52659421 </i>
    <i name="e_0_energy">   -105.53080234 </i>
   </energy>
  </scstep>
  <scstep>
   <time name="diag">    4.39    4.40</time>
   <time name="diis">    5.52    5.53</time>
   <time name="orth">    0.97    0.97</time>
   <time name="total">   12.16   12.19</time>
   <dipole>
    <v name="dipole">      0.00000000       0.00000000       0.00129957 </v>
    <i name="Tr[quadrupol]">  -2149.35556475 </i>
    <i name="Echarged">      0.00000000 </i>
    <i name="Edipol_quadrupol">      0.00000000 </i>
    <i name="Eion">      0.00000000 </i>
   </dipole>
   <energy>
    <i name="e_fr_energy">   -105.53502198 </i>
    <i name="e_wo_entrp">   -105.52660542 </i>
    <i name="e_0_energy">   -105.53081370 </i>
   </energy>
  </scstep>
  <scstep>
   <time name="diag">    4.39    4.40</time>
   <time name="diis">    7.03    7.05</time>
   <time name="orth">    0.96    0.96</time>
   <time name="total">   13.68   13.71</time>
   <dipole>
    <v name="dipole">      0.00000000       0.00000000       0.00042768 </v>
    <i name="Tr[quadrupol]">  -2149.35687305 </i>
    <i name="Echarged">      0.00000000 </i>
    <i name="Edipol_quadrupol">      0.00000000 </i>
    <i name="Eion">      0.00000000 </i>
   </dipole>
   <energy>
    <i name="e_fr_energy">   -105.53503383 </i>
    <i name="e_wo_entrp">   -105.52661639 </i>
    <i name="e_0_energy">   -105.53082511 </i>
   </energy>
  </scstep>
  <scstep>
   <time name="diag">    4.40    4.41</time>
   <time name="diis">    5.34    5.36</time>
   <time name="orth">    0.97    0.97</time>
   <time name="total">   10.97   11.00</time>
   <dipole>
    <v name="dipole">      0.00000000       0.00000000       0.00028396 </v>
    <i name="Tr[quadrupol]">  -2149.35731497 </i>
    <i name="Echarged">      0.00000000 </i>
    <i name="Edipol_quadrupol">      0.00000000 </i>
    <i name="Eion">      0.00000000 </i>
   </dipole>
   <energy>
    <i name="alphaZ">    182.24856740 </i>
    <i name="ewald">  11149.23115453 </i>
    <i name="hartreedc"> -24999.03905472 </i>
    <i name="XCdc">   -920.00528669 </i>
    <i name="pawpsdc">  16659.08598952 </i>
    <i name="pawaedc"> -15208.08446897 </i>
    <i name="eentropy">     -0.00841692 </i>
    <i name="bandstr">   -355.25567144 </i>
    <i name="atom">  13386.29214936 </i>
    <i name="e_fr_energy">   -105.53503793 </i>
    <i name="e_wo_entrp">   -105.52662101 </i>
    <i name="e_0_energy">   -105.53082947 </i>
   </energy>
  </scstep>
  <structure>
   <crystal>
    <varray name="basis" >
     <v>       7.12360001       0.00000000       0.00000000 </v>
     <v>      -2.52484214       9.05736979       0.00000000 </v>
     <v>       0.00000000       0.00000000      16.18589973 </v>
    </varray>
    <i name="volume">   1044.33172306 </i>
    <varray name="rec_basis" >
     <v>       0.14037846       0.03913205       0.00000000 </v>
     <v>       0.00000000       0.11040733       0.00000000 </v>
     <v>       0.00000000       0.00000000       0.06178217 </v>
    </varray>
   </crystal>
   <varray name="positions" >
    <v>       0.18663999       0.86427999       0.05988000 </v>
    <v>       0.28696001       0.38490000       0.08790000 </v>
    <v>       0.62568998       0.19158000       0.09918000 </v>
    <v>       0.72549999       0.71184999       0.12715000 </v>
    <v>       0.88265997       0.00569000       0.25492001 </v>
    <v>       0.98298001       0.52631003       0.28294000 </v>
    <v>       0.32170999       0.33298001       0.29422000 </v>
    <v>       0.42151001       0.85325998       0.32218000 </v>
    <v>       0.94466001       0.29256999       0.00000000 </v>
    <v>       0.64916003       0.46002001       0.01303000 </v>
    <v>       0.40053001       0.66846001       0.02812000 </v>
    <v>       0.90309000       0.01169000       0.08416000 </v>
    <v>       0.00918000       0.56448001       0.10290000 </v>
    <v>       0.51166999       0.90785003       0.15886000 </v>
    <v>       0.26289999       0.11626000       0.17392001 </v>
    <v>       0.96789002       0.28365001       0.18714000 </v>
    <v>       0.64068002       0.43397999       0.19504000 </v>
    <v>       0.34516999       0.60141999       0.20807000 </v>
    <v>       0.09655000       0.80987000       0.22316000 </v>
    <v>       0.59911001       0.15310000       0.27919999 </v>
    <v>       0.70520002       0.70587999       0.29793999 </v>
    <v>       0.20769000       0.04925000       0.35389999 </v>
    <v>       0.95892000       0.25766999       0.36895001 </v>
    <v>       0.66390997       0.42506000       0.38218001 </v>
   </varray>
  </structure>
  <varray name="forces" >
   <v>      -0.01730240       0.01382275      -0.12648359 </v>
   <v>       0.02515737      -0.11110903      -0.59815325 </v>
   <v>       0.20682025      -0.10491101      -0.40504103 </v>
   <v>       0.08090519      -0.01598205      -0.57924885 </v>
   <v>      -0.08277955       0.01728946       0.57408633 </v>
   <v>      -0.21717237       0.08527651       0.42102221 </v>
   <v>      -0.03912049       0.09891197       0.59104777 </v>
   <v>       0.00350072      -0.01174579       0.12847849 </v>
   <v>      -0.19730267       0.24193542       0.91009077 </v>
   <v>      -0.00438656      -0.04081126       0.81301237 </v>
   <v>       0.07924477      -0.08629865       0.60935628 </v>
   <v>       0.01560966       0.05737873       0.19990737 </v>
   <v>       0.00449100      -0.16420698      -0.15981910 </v>
   <v>      -0.00156066       0.19286269      -0.32617228 </v>
   <v>       0.13131258      -0.12198656      -0.25230793 </v>
   <v>       0.12410198      -0.05530343       0.00687376 </v>
   <v>      -0.13008092       0.05418535      -0.00957624 </v>
   <v>      -0.11154863       0.12072873       0.25869397 </v>
   <v>       0.01530915      -0.18452899       0.31987266 </v>
   <v>      -0.00591804       0.16142470       0.15126350 </v>
   <v>      -0.03381015      -0.04872760      -0.20067944 </v>
   <v>      -0.07231126       0.09340735      -0.60679083 </v>
   <v>       0.00653320       0.03664713      -0.81258231 </v>
   <v>       0.22030784      -0.22825944      -0.90685064 </v>
  </varray>
  <varray name="stress" >
   <v>     -22.52798501       2.16547367      -0.18098047 </v>
   <v>       2.16547349     -25.30968663      -0.10927572 </v>
   <v>      -0.18098042      -0.10927574     -12.96675379 </v>
  </varray>
  <energy>
   <i name="e_fr_energy">   -105.53503793 </i>
   <i name="e_wo_entrp">   -105.53082947 </i>
   <i name="e_0_energy">     -0.00841692 </i>
  </energy>
  <time name="totalsc">  918.74  920.74</time>
 </calculation>
 <calculation>
  <scstep>
   <time name="dav">   27.29   27.35</time>
   <time name="total">   28.56   28.63</time>
   <dipole>
    <v name="dipole">      0.00000000       0.00000000       0.00002321 </v>
    <i name="Tr[quadrupol]">  -2149.15378284 </i>
    <i name="Echarged">      0.00000000 </i>
    <i name="Edipol_quadrupol">      0.00000000 </i>
    <i name="Eion">      0.00000000 </i>
   </dipole>
   <energy>
    <i name="alphaZ">    182.24864367 </i>
    <i name="ewald">  11181.30693827 </i>
    <i name="hartreedc"> -25031.13319382 </i>
    <i name="XCdc">   -919.96653453 </i>
    <i name="pawpsdc">  16659.01895804 </i>
    <i name="pawaedc"> -15208.01757755 </i>
    <i name="eentropy">     -0.00840504 </i>
    <i name="bandstr">   -355.31775381 </i>
    <i name="atom">  13386.29214936 </i>
    <i name="e_fr_energy">   -105.57677539 </i>
    <i name="e_wo_entrp">   -105.56837036 </i>
    <i name="e_0_energy">   -105.57257288 </i>
   </energy>
  </scstep>
  <scstep>
   <time name="diag">    4.38    4.39</time>
   <time name="diis">   11.93   11.96</time>
   <time name="orth">    0.96    0.96</time>
   <time name="total">   18.53   18.58</time>
   <dipole>
    <v name="dipole">      0.00000000       0.00000000      -0.00072139 </v>
    <i name="Tr[quadrupol]">  -2149.15624142 </i>
    <i name="Echarged">      0.00000000 </i>
    <i name="Edipol_quadrupol">      0.00000000 </i>
    <i name="Eion">      0.00000000 </i>
   </dipole>
   <energy>
    <i name="e_fr_energy">   -105.58030017 </i>
    <i name="e_wo_entrp">   -105.57190875 </i>
    <i name="e_0_energy">   -105.57610446 </i>
   </energy>
  </scstep>
  <scstep>
   <time name="diag">    4.38    4.40</time>
   <time name="diis">   16.11   16.14</time>
   <time name="orth">    0.96    0.96</time>
   <time name="total">   22.73   22.78</time>
   <dipole>
    <v name="dipole">      0.00000000       0.00000000      -0.00126056 </v>
    <i name="Tr[quadrupol]">  -2149.15865836 </i>
    <i name="Echarged">      0.00000000 </i>
    <i name="Edipol_quadrupol">      0.00000000 </i>
    <i name="Eion">      0.00000000 </i>
   </dipole>
   <energy>
    <i name="e_fr_energy">   -105.58052914 </i>
    <i name="e_wo_entrp">   -105.57214877 </i>
    <i name="e_0_energy">   -105.57633895 </i>
   </energy>
  </scstep>
  <scstep>
   <time name="diag">    4.38    4.39</time>
   <time name="diis">    9.62    9.64</time>
   <time name="orth">    0.96    0.96</time>
   <time name="total">   16.22   16.26</time>
   <dipole>
    <v name="dipole">      0.00000000       0.00000000      -0.00152473 </v>
    <i name="Tr[quadrupol]">  -2149.16150324 </i>
    <i name="Echarged">      0.00000000 </i>
    <i name="Edipol_quadrupol">      0.00000000 </i>
    <i name="Eion">      0.00000000 </i>
   </dipole>
   <energy>
    <i name="e_fr_energy">   -105.58047054 </i>
    <i name="e_wo_entrp">   -105.57210183 </i>
    <i name="e_0_energy">   -105.57628619 </i>
   </energy>
  </scstep>
  <scstep>
   <time name="diag">    4.39    4.40</time>
   <time name="diis">   11.18   11.21</time>
   <time name="orth">    0.96    0.97</time>
   <time name="total">   17.80   17.84</time>
   <dipole>
    <v name="dipole">      0.00000000       0.00000000      -0.00147108 </v>
    <i name="Tr[quadrupol]">  -2149.16498955 </i>
    <i name="Echarged">      0.00000000 </i>
    <i name="Edipol_quadrupol">      0.00000000 </i>
    <i name="Eion">      0.00000000 </i>
   </dipole>
   <energy>
    <i name="e_fr_energy">   -105.58042491 </i>
    <i name="e_wo_entrp">   -105.57206692 </i>
    <i name="e_0_energy">   -105.57624592 </i>
   </energy>
  </scstep>
  <scstep>
   <time name="diag">    4.38    4.39</time>
   <time name="diis">    7.55    7.56</time>
   <time name="orth">    0.96    0.97</time>
   <time name="total">   14.14   14.18</time>
   <dipole>
    <v name="dipole">      0.00000000       0.00000000      -0.00067626 </v>
    <i name="Tr[quadrupol]">  -2149.16579779 </i>
    <i name="Echarged">      0.00000000 </i>
    <i name="Edipol_quadrupol">      0.00000000 </i>
    <i name="Eion">      0.00000000 </i>
   </dipole>
   <energy>
    <i name="e_fr_energy">   -105.58040274 </i>
    <i name="e_wo_entrp">   -105.57203642 </i>
    <i name="e_0_energy">   -105.57621958 </i>
   </energy>
  </scstep>
  <scstep>
   <time name="diag">    4.39    4.40</time>
   <time name="diis">    6.82    6.84</time>
   <time name="orth">    0.97    0.97</time>
   <time name="total">   12.44   12.47</time>
   <dipole>
    <v name="dipole">      0.00000000       0.00000000      -0.00077783 </v>
    <i name="Tr[quadrupol]">  -2149.16590938 </i>
    <i name="Echarged">      0.00000000 </i>
    <i name="Edipol_quadrupol">      0.00000000 </i>
    <i name="Eion">      0.00000000 </i>
   </dipole>
   <energy>
    <i name="alphaZ">    182.24884961 </i>
    <i name="ewald">  11181.30693827 </i>
    <i name="hartreedc"> -25030.91562838 </i>
    <i name="XCdc">   -919.97829476 </i>
    <i name="pawpsdc">  16663.06564904 </i>
    <i name="pawaedc"> -15212.17136393 </i>
    <i name="eentropy">     -0.00836859 </i>
    <i name="bandstr">   -355.42033071 </i>
    <i name="atom">  13386.29214936 </i>
    <i name="e_fr_energy">   -105.58040010 </i>
    <i name="e_wo_entrp">   -105.57203150 </i>
    <i name="e_0_energy">   -105.57621580 </i>
   </energy>
  </scstep>
  <structure>
   <crystal>
    <varray name="basis" >
     <v>       7.12360001       0.00000000       0.00000000 </v>
     <v>      -2.52484214       9.05736979       0.00000000 </v>
     <v>       0.00000000       0.00000000      16.18589973 </v>
    </varray>
    <i name="volume">   1044.33172306 </i>
    <varray name="rec_basis" >
     <v>       0.14037846       0.03913205       0.00000000 </v>
     <v>       0.00000000       0.11040733       0.00000000 </v>
     <v>       0.00000000       0.00000000       0.06178217 </v>
    </varray>
   </crystal>
   <varray name="positions" >
    <v>       0.18663999       0.86427999       0.05988000 </v>
    <v>       0.28696001       0.38490000       0.08790000 </v>
    <v>       0.62568998       0.19158000       0.09918000 </v>
    <v>       0.72549999       0.71184999       0.12715000 </v>
    <v>       0.88250158       0.00571763       0.25543333 </v>
    <v>       0.98258709       0.52644629       0.28331646 </v>
    <v>       0.32168653       0.33313806       0.29474849 </v>
    <v>       0.42151047       0.85324121       0.32229488 </v>
    <v>       0.94466001       0.29256999       0.00000000 </v>
    <v>       0.64916003       0.46002001       0.01303000 </v>
    <v>       0.40053001       0.66846001       0.02812000 </v>
    <v>       0.90309000       0.01169000       0.08416000 </v>
    <v>       0.00918000       0.56448001       0.10290000 </v>
    <v>       0.51166999       0.90785003       0.15886000 </v>
    <v>       0.26289999       0.11626000       0.17392001 </v>
    <v>       0.96789002       0.28365001       0.18714000 </v>
    <v>       0.64044642       0.43406657       0.19503144 </v>
    <v>       0.34501174       0.60161290       0.20830131 </v>
    <v>       0.09647660       0.80957515       0.22344602 </v>
    <v>       0.59918941       0.15335794       0.27933524 </v>
    <v>       0.70510373       0.70580212       0.29776055 </v>
    <v>       0.20759599       0.04939926       0.35335742 </v>
    <v>       0.95895403       0.25772854       0.36822343 </v>
    <v>       0.66422829       0.42469527       0.38136914 </v>
   </varray>
  </structure>
  <varray name="forces" >
   <v>      -0.02143050       0.01345089      -0.10883907 </v>
   <v>       0.02412246      -0.10553957      -0.58164212 </v>
   <v>       0.20594300      -0.10527634      -0.39618714 </v>
   <v>       0.08111994      -0.00963916      -0.58293873 </v>
   <v>      -0.08299228       0.00312358       0.51491292 </v>
   <v>      -0.17467263       0.10055198       0.36291024 </v>
   <v>      -0.04494225       0.11048304       0.53232803 </v>
   <v>       0.00904391      -0.00645824       0.12198999 </v>
   <v>      -0.19672679       0.24173764       0.91292896 </v>
   <v>      -0.00383828      -0.04004057       0.81533798 </v>
   <v>       0.07930120      -0.08793776       0.61413738 </v>
   <v>       0.01538121       0.05731153       0.22159036 </v>
   <v>       0.00640089      -0.16307657      -0.14843178 </v>
   <v>      -0.00070562       0.19547772      -0.31601177 </v>
   <v>       0.12859143      -0.11706971      -0.24508018 </v>
   <v>       0.12175683      -0.04969373       0.00275587 </v>
   <v>      -0.13452556       0.04696767      -0.01746814 </v>
   <v>      -0.10935953       0.10178093       0.25307405 </v>
   <v>       0.00665225      -0.17089784       0.29725125 </v>
   <v>      -0.01428452       0.14594608       0.12832994 </v>
   <v>      -0.04392477      -0.03606922      -0.18599369 </v>
   <v>      -0.05866476       0.08066843      -0.57831600 </v>
   <v>       0.00377870       0.03143241      -0.76552413 </v>
   <v>       0.20397568      -0.23723320      -0.85111422 </v>
  </varray>
  <varray name="stress" >
   <v>     -22.16819860       2.23477272      -0.16593246 </v>
   <v>       2.23477260     -25.15583980      -0.17897261 </v>
   <v>      -0.16593239      -0.17897257     -12.84062313 </v>
  </varray>
  <energy>
   <i name="e_fr_energy">   -105.58040010 </i>
   <i name="e_wo_entrp">   -105.57621580 </i>
   <i name="e_0_energy">     -0.00836859 </i>
  </energy>
  <time name="totalsc">  154.03  154.40</time>
 </calculation>
 <calculation>
  <scstep>
   <time name="dav">   25.38   25.43</time>
   <time name="total">   26.65   26.71</time>
   <dipole>
    <v name="dipole">      0.00000000       0.00000000      -0.00073905 </v>
    <i name="Tr[quadrupol]">  -2147.10966677 </i>
    <i name="Echarged">      0.00000000 </i>
    <i name="Edipol_quadrupol">      0.00000000 </i>
    <i name="Eion">      0.00000000 </i>
   </dipole>
   <energy>
    <i name="alphaZ">    182.24859505 </i>
    <i name="ewald">  11502.56259003 </i>
    <i name="hartreedc"> -25351.56836774 </i>
    <i name="XCdc">   -919.57746731 </i>
    <i name="pawpsdc">  16663.11138827 </i>
    <i name="pawaedc"> -15212.21174503 </i>
    <i name="eentropy">     -0.00803616 </i>
    <i name="bandstr">   -356.29683199 </i>
    <i name="atom">  13386.29214936 </i>
    <i name="e_fr_energy">   -105.44772551 </i>
    <i name="e_wo_entrp">   -105.43968935 </i>
    <i name="e_0_energy">   -105.44370743 </i>
   </energy>
  </scstep>
  <scstep>
   <time name="diag">    4.40    4.41</time>
   <time name="diis">   12.01   12.04</time>
   <time name="orth">    0.96    0.96</time>
   <time name="total">   18.63   18.68</time>
   <dipole>
    <v name="dipole">      0.00000000       0.00000000      -0.00821537 </v>
    <i name="Tr[quadrupol]">  -2147.13352027 </i>
    <i name="Echarged">      0.00000000 </i>
    <i name="Edipol_quadrupol">      0.00000000 </i>
    <i name="Eion">      0.00000000 </i>
   </dipole>
   <energy>
    <i name="e_fr_energy">   -105.81580944 </i>
    <i name="e_wo_entrp">   -105.80769308 </i>
    <i name="e_0_energy">   -105.81175126 </i>
   </energy>
  </scstep>
  <scstep>
   <time name="diag">    4.38    4.39</time>
   <time name="diis">   16.12   16.15</time>
   <time name="orth">    0.96    0.96</time>
   <time name="total">   22.69   22.74</time>
   <dipole>
    <v name="dipole">      0.00000000       0.00000000      -0.01434047 </v>
    <i name="Tr[quadrupol]">  -2147.15510678 </i>
    <i name="Echarged">      0.00000000 </i>
    <i name="Edipol_quadrupol">      0.00000000 </i>
    <i name="Eion">      0.00000000 </i>
   </dipole>
   <energy>
    <i name="e_fr_energy">   -105.84071898 </i>
    <i name="e_wo_entrp">   -105.83258487 </i>
    <i name="e_0_energy">   -105.83665192 </i>
   </energy>
  </scstep>
  <scstep>
   <time name="diag">    4.40    4.41</time>
   <time name="diis">   11.85   11.87</time>
   <time name="orth">    0.96    0.96</time>
   <time name="total">   18.45   18.50</time>
   <dipole>
    <v name="dipole">      0.00000000       0.00000000      -0.01596813 </v>
    <i name="Tr[quadrupol]">  -2147.17569006 </i>
    <i name="Echarged">      0.00000000 </i>
    <i name="Edipol_quadrupol">      0.00000000 </i>
    <i name="Eion">      0.00000000 </i>
   </dipole>
   <energy>
    <i name="e_fr_energy">   -105.83603358 </i>
    <i name="e_wo_entrp">   -105.82790770 </i>
    <i name="e_0_energy">   -105.83197064 </i>
   </energy>
  </scstep>
  <scstep>
   <time name="diag">    4.39    4.40</time>
   <time name="diis">   11.69   11.73</time>
   <time name="orth">    0.96    0.96</time>
   <time name="total">   18.31   18.36</time>
   <dipole>
    <v name="dipole">      0.00000000       0.00000000      -0.01556253 </v>
    <i name="Tr[quadrupol]">  -2147.22258011 </i>
    <i name="Echarged">      0.00000000 </i>
    <i name="Edipol_quadrupol">      0.00000000 </i>
    <i name="Eion">      0.00000000 </i>
   </dipole>
   <energy>
    <i name="e_fr_energy">   -105.82895125 </i>
    <i name="e_wo_entrp">   -105.82089991 </i>
    <i name="e_0_energy">   -105.82492558 </i>
   </energy>
  </scstep>
  <scstep>
   <time name="diag">    4.39    4.40</time>
   <time name="diis">   11.61   11.63</time>
   <time name="orth">    0.96    0.97</time>
   <time name="total">   18.22   18.27</time>
   <dipole>
    <v name="dipole">      0.00000000       0.00000000      -0.01030784 </v>
    <i name="Tr[quadrupol]">  -2147.22776277 </i>
    <i name="Echarged">      0.00000000 </i>
    <i name="Edipol_quadrupol">      0.00000000 </i>
    <i name="Eion">      0.00000000 </i>
   </dipole>
   <energy>
    <i name="e_fr_energy">   -105.82694151 </i>
    <i name="e_wo_entrp">   -105.81885268 </i>
    <i name="e_0_energy">   -105.82289710 </i>
   </energy>
  </scstep>
  <scstep>
   <time name="diag">    4.39    4.40</time>
   <time name="diis">   11.84   11.86</time>
   <time name="orth">    0.96    0.97</time>
   <time name="total">   18.46   18.51</time>
   <dipole>
    <v name="dipole">      0.00000000       0.00000000      -0.00889309 </v>
    <i name="Tr[quadrupol]">  -2147.22308093 </i>
    <i name="Echarged">      0.00000000 </i>
    <i name="Edipol_quadrupol">      0.00000000 </i>
    <i name="Eion">      0.00000000 </i>
   </dipole>
   <energy>
    <i name="e_fr_energy">   -105.82656615 </i>
    <i name="e_wo_entrp">   -105.81842049 </i>
    <i name="e_0_energy">   -105.82249332 </i>
   </energy>
  </scstep>
  <scstep>
   <time name="diag">    4.40    4.41</time>
   <time name="diis">   11.81   11.84</time>
   <time name="orth">    0.96    0.97</time>
   <time name="total">   18.43   18.48</time>
   <dipole>
    <v name="dipole">      0.00000000       0.00000000      -0.01132505 </v>
    <i name="Tr[quadrupol]">  -2147.22669007 </i>
    <i name="Echarged">      0.00000000 </i>
    <i name="Edipol_quadrupol">      0.00000000 </i>
    <i name="Eion">      0.00000000 </i>
   </dipole>
   <energy>
    <i name="e_fr_energy">   -105.82634905 </i>
    <i name="e_wo_entrp">   -105.81819314 </i>
    <i name="e_0_energy">   -105.82227109 </i>
   </energy>
  </scstep>
  <scstep>
   <time name="diag">    4.39    4.40</time>
   <time name="diis">   11.94   11.97</time>
   <time name="orth">    0.96    0.97</time>
   <time name="total">   18.56   18.60</time>
   <dipole>
    <v name="dipole">      0.00000000       0.00000000      -0.01023230 </v>
    <i name="Tr[quadrupol]">  -2147.22326254 </i>
    <i name="Echarged">      0.00000000 </i>
    <i name="Edipol_quadrupol">      0.00000000 </i>
    <i name="Eion">      0.00000000 </i>
   </dipole>
   <energy>
    <i name="e_fr_energy">   -105.82605123 </i>
    <i name="e_wo_entrp">   -105.81790120 </i>
    <i name="e_0_energy">   -105.82197622 </i>
   </energy>
  </scstep>
  <scstep>
   <time name="diag">    4.40    4.41</time>
   <time name="diis">    9.74    9.76</time>
   <time name="orth">    0.96    0.96</time>
   <time name="total">   16.35   16.39</time>
   <dipole>
    <v name="dipole">      0.00000000       0.00000000      -0.01001991 </v>
    <i name="Tr[quadrupol]">  -2147.22295525 </i>
    <i name="Echarged">      0.00000000 </i>
    <i name="Edipol_quadrupol">      0.00000000 </i>
    <i name="Eion">      0.00000000 </i>
   </dipole>
   <energy>
    <i name="e_fr_energy">   -105.82601244 </i>
    <i name="e_wo_entrp">   -105.81787346 </i>
    <i name="e_0_energy">   -105.82194295 </i>
   </energy>
  </scstep>
  <scstep>
   <time name="diag">    4.38    4.39</time>
   <time name="diis">   11.88   11.91</time>
   <time name="orth">    0.96    0.97</time>
   <time name="total">   18.49   18.53</time>
   <dipole>
    <v name="dipole">      0.00000000       0.00000000      -0.00992155 </v>
    <i name="Tr[quadrupol]">  -2147.21794560 </i>
    <i name="Echarged">      0.00000000 </i>
    <i name="Edipol_quadrupol">      0.00000000 </i>
    <i name="Eion">      0.00000000 </i>
   </dipole>
   <energy>
    <i name="e_fr_energy">   -105.82597431 </i>
    <i name="e_wo_entrp">   -105.81782682 </i>
    <i name="e_0_energy">   -105.82190056 </i>
   </energy>
  </scstep>
  <scstep>
   <time name="diag">    4.38    4.39</time>
   <time name="diis">    7.74    7.76</time>
   <time name="orth">    0.96    0.96</time>
   <time name="total">   14.34   14.37</time>
   <dipole>
    <v name="dipole">      0.00000000       0.00000000      -0.00961905 </v>
    <i name="Tr[quadrupol]">  -2147.21639400 </i>
    <i name="Echarged">      0.00000000 </i>
    <i name="Edipol_quadrupol">      0.00000000 </i>
    <i name="Eion">      0.00000000 </i>
   </dipole>
   <energy>
    <i name="e_fr_energy">   -105.82596428 </i>
    <i name="e_wo_entrp">   -105.81781202 </i>
    <i name="e_0_energy">   -105.82188815 </i>
   </energy>
  </scstep>
  <scstep>
   <time name="diag">    4.37    4.38</time>
   <time name="diis">    7.92    7.94</time>
   <time name="orth">    0.96    0.96</time>
   <time name="total">   14.48   14.52</time>
   <dipole>
    <v name="dipole">      0.00000000       0.00000000      -0.00860874 </v>
    <i name="Tr[quadrupol]">  -2147.21106178 </i>
    <i name="Echarged">      0.00000000 </i>
    <i name="Edipol_quadrupol">      0.00000000 </i>
    <i name="Eion">      0.00000000 </i>
   </dipole>
   <energy>
    <i name="e_fr_energy">   -105.82600176 </i>
    <i name="e_wo_entrp">   -105.81785001 </i>
    <i name="e_0_energy">   -105.82192588 </i>
   </energy>
  </scstep>
  <scstep>
   <time name="diag">    4.39    4.40</time>
   <time name="diis">    7.34    7.36</time>
   <time name="orth">    0.96    0.96</time>
   <time name="total">   13.96   14.00</time>
   <dipole>
    <v name="dipole">      0.00000000       0.00000000      -0.00839802 </v>
    <i name="Tr[quadrupol]">  -2147.20848773 </i>
    <i name="Echarged">      0.00000000 </i>
    <i name="Edipol_quadrupol">      0.00000000 </i>
    <i name="Eion">      0.00000000 </i>
   </dipole>
   <energy>
    <i name="e_fr_energy">   -105.82601464 </i>
    <i name="e_wo_entrp">   -105.81785951 </i>
    <i name="e_0_energy">   -105.82193707 </i>
   </energy>
  </scstep>
  <scstep>
   <time name="diag">    4.38    4.39</time>
   <time name="diis">    7.92    7.94</time>
   <time name="orth">    0.96    0.96</time>
   <time name="total">   14.51   14.54</time>
   <dipole>
    <v name="dipole">      0.00000000       0.00000000      -0.00725903 </v>
    <i name="Tr[quadrupol]">  -2147.20217297 </i>
    <i name="Echarged">      0.00000000 </i>
    <i name="Edipol_quadrupol">      0.00000000 </i>
    <i name="Eion">      0.00000000 </i>
   </dipole>
   <energy>
    <i name="e_fr_energy">   -105.82607176 </i>
    <i name="e_wo_entrp">   -105.81792012 </i>
    <i name="e_0_energy">   -105.82199594 </i>
   </energy>
  </scstep>
  <scstep>
   <time name="diag">    4.37    4.39</time>
[...]
       <r>   -2.6310    1.0000 </r>
       <r>   -2.6158    1.0000 </r>
       <r>   -2.5474    1.0000 </r>
       <r>   -2.5120    1.0000 </r>
       <r>   -2.4799    1.0000 </r>
       <r>   -2.4549    1.0000 </r>
       <r>   -2.3727    1.0000 </r>
       <r>   -2.3524    1.0000 </r>
       <r>   -2.3018    1.0000 </r>
       <r>   -2.2661    1.0000 </r>
       <r>   -2.2013    1.0000 </r>
       <r>   -2.1568    1.0000 </r>
       <r>   -2.1213    1.0000 </r>
       <r>   -2.0773    1.0000 </r>
       <r>   -2.0474    1.0000 </r>
       <r>   -2.0056    1.0000 </r>
       <r>   -1.9740    1.0000 </r>
       <r>   -1.9395    1.0000 </r>
       <r>   -1.9102    1.0000 </r>
       <r>   -1.8477    1.0000 </r>
       <r>   -1.8057    1.0000 </r>
       <r>   -1.7735    1.0000 </r>
       <r>   -1.6867    1.0000 </r>
       <r>   -1.6600    1.0000 </r>
       <r>   -1.6383    1.0000 </r>
       <r>   -1.5783    1.0000 </r>
       <r>   -1.5348    1.0000 </r>
       <r>   -1.4617    1.0000 </r>
       <r>   -1.4522    1.0000 </r>
       <r>   -1.4052    1.0000 </r>
       <r>   -1.3907    1.0000 </r>
       <r>   -1.2916    1.0000 </r>
       <r>   -1.2771    1.0000 </r>
       <r>   -1.2490    1.0000 </r>
       <r>   -1.2453    1.0000 </r>
       <r>   -1.2057    1.0000 </r>
       <r>   -1.1720    1.0000 </r>
       <r>   -1.1240    1.0000 </r>
       <r>   -1.1058    1.0000 </r>
       <r>   -1.0559    1.0000 </r>
       <r>   -1.0058    1.0000 </r>
       <r>   -0.9932    1.0000 </r>
       <r>   -0.9513    1.0000 </r>
       <r>   -0.9151    1.0000 </r>
       <r>   -0.8916    1.0000 </r>
       <r>   -0.8663    1.0000 </r>
       <r>   -0.8540    1.0000 </r>
       <r>   -0.8321    1.0000 </r>
       <r>   -0.7822    1.0000 </r>
       <r>   -0.7458    1.0000 </r>
       <r>   -0.7225    1.0000 </r>
       <r>   -0.6882    1.0000 </r>
       <r>   -0.6329    1.0000 </r>
       <r>   -0.6077    1.0000 </r>
       <r>   -0.5794    1.0000 </r>
       <r>   -0.5503    1.0000 </r>
       <r>   -0.5278    1.0000 </r>
       <r>   -0.5098    1.0000 </r>
       <r>   -0.4293    1.0000 </r>
       <r>   -0.3909    1.0000 </r>
       <r>   -0.3442    1.0000 </r>
       <r>   -0.3218    1.0000 </r>
       <r>   -0.2767    1.0000 </r>
       <r>   -0.1384    1.0000 </r>
       <r>   -0.0960    1.0000 </r>
       <r>    0.0613    1.0000 </r>
       <r>    0.3049    1.0000 </r>
       <r>    0.4382    1.0000 </r>
       <r>    0.4950    1.0000 </r>
       <r>    0.9313    0.0000 </r>
       <r>    1.0782    0.0000 </r>
       <r>    1.2585    0.0000 </r>
       <r>    1.4365    0.0000 </r>
       <r>    1.6102    0.0000 </r>
       <r>    1.7174    0.0000 </r>
       <r>    1.8602    0.0000 </r>
       <r>    1.9803    0.0000 </r>
       <r>    2.1970    0.0000 </r>
       <r>    2.3595    0.0000 </r>
       <r>    2.5474    0.0000 </r>
       <r>    2.5964    0.0000 </r>
       <r>    2.8909    0.0000 </r>
       <r>    2.9785    0.0000 </r>
       <r>    3.4095    0.0000 </r>
       <r>    3.5578    0.0000 </r>
       <r>    4.0235    0.0000 </r>
       <r>    4.1081    0.0000 </r>
       <r>    4.2811    0.0000 </r>
       <r>    4.4463    0.0000 </r>
       <r>    4.7895    0.0000 </r>
       <r>    5.1190    0.0000 </r>
       <r>    5.2231    0.0000 </r>
       <r>    5.2776    0.0000 </r>
       <r>    5.4601    0.0000 </r>
       <r>    5.5977    0.0000 </r>
       <r>    5.8332    0.0000 </r>
       <r>    5.9108    0.0000 </r>
      </set>
      <set comment="kpoint 9">
       <r>   -7.0755    1.0000 </r>
       <r>   -7.0138    1.0000 </r>
       <r>   -5.6726    1.0000 </r>
       <r>   -5.5623    1.0000 </r>
       <r>   -5.2243    1.0000 </r>
       <r>   -5.0087    1.0000 </r>
       <r>   -4.8709    1.0000 </r>
       <r>   -4.8240    1.0000 </r>
       <r>   -3.6170    1.0000 </r>
       <r>   -3.5798    1.0000 </r>
       <r>   -3.5547    1.0000 </r>
       <r>   -3.2868    1.0000 </r>
       <r>   -3.2326    1.0000 </r>
       <r>   -3.1963    1.0000 </r>
       <r>   -3.1554    1.0000 </r>
       <r>   -3.0588    1.0000 </r>
       <r>   -2.9711    1.0000 </r>
       <r>   -2.9502    1.0000 </r>
       <r>   -2.8903    1.0000 </r>
       <r>   -2.8518    1.0000 </r>
       <r>   -2.8126    1.0000 </r>
       <r>   -2.7553    1.0000 </r>
       <r>   -2.7478    1.0000 </r>
       <r>   -2.6543    1.0000 </r>
       <r>   -2.5432    1.0000 </r>
       <r>   -2.5351    1.0000 </r>
       <r>   -2.5208    1.0000 </r>
       <r>   -2.5003    1.0000 </r>
       <r>   -2.4481    1.0000 </r>
       <r>   -2.3776    1.0000 </r>
       <r>   -2.3676    1.0000 </r>
       <r>   -2.2747    1.0000 </r>
       <r>   -2.2492    1.0000 </r>
       <r>   -2.2016    1.0000 </r>
       <r>   -2.1414    1.0000 </r>
       <r>   -2.1191    1.0000 </r>
       <r>   -2.0880    1.0000 </r>
       <r>   -2.0577    1.0000 </r>
       <r>   -2.0475    1.0000 </r>
       <r>   -2.0014    1.0000 </r>
       <r>   -1.9644    1.0000 </r>
       <r>   -1.9281    1.0000 </r>
       <r>   -1.9018    1.0000 </r>
       <r>   -1.8445    1.0000 </r>
       <r>   -1.8378    1.0000 </r>
       <r>   -1.7540    1.0000 </r>
       <r>   -1.7007    1.0000 </r>
       <r>   -1.6685    1.0000 </r>
       <r>   -1.5664    1.0000 </r>
       <r>   -1.5104    1.0000 </r>
       <r>   -1.4677    1.0000 </r>
       <r>   -1.4013    1.0000 </r>
       <r>   -1.3884    1.0000 </r>
       <r>   -1.3586    1.0000 </r>
       <r>   -1.3402    1.0000 </r>
       <r>   -1.3183    1.0000 </r>
       <r>   -1.2670    1.0000 </r>
       <r>   -1.2360    1.0000 </r>
       <r>   -1.2087    1.0000 </r>
       <r>   -1.1562    1.0000 </r>
       <r>   -1.1012    1.0000 </r>
       <r>   -1.0687    1.0000 </r>
       <r>   -1.0675    1.0000 </r>
       <r>   -1.0009    1.0000 </r>
       <r>   -0.9917    1.0000 </r>
       <r>   -0.9554    1.0000 </r>
       <r>   -0.9266    1.0000 </r>
       <r>   -0.9073    1.0000 </r>
       <r>   -0.8822    1.0000 </r>
       <r>   -0.8391    1.0000 </r>
       <r>   -0.8237    1.0000 </r>
       <r>   -0.7978    1.0000 </r>
       <r>   -0.7739    1.0000 </r>
       <r>   -0.7249    1.0000 </r>
       <r>   -0.6896    1.0000 </r>
       <r>   -0.6639    1.0000 </r>
       <r>   -0.6458    1.0000 </r>
       <r>   -0.5810    1.0000 </r>
       <r>   -0.5112    1.0000 </r>
       <r>   -0.4680    1.0000 </r>
       <r>   -0.4079    1.0000 </r>
       <r>   -0.3926    1.0000 </r>
       <r>   -0.3476    1.0000 </r>
       <r>   -0.3274    1.0000 </r>
       <r>   -0.2398    1.0000 </r>
       <r>   -0.1446    1.0000 </r>
       <r>   -0.0729    1.0000 </r>
       <r>    0.0691    1.0000 </r>
       <r>    0.2327    1.0000 </r>
       <r>    0.3521    1.0000 </r>
       <r>    0.4617    1.0000 </r>
       <r>    0.6158    0.6695 </r>
       <r>    0.6295    0.4192 </r>
       <r>    0.7354    0.0000 </r>
       <r>    1.0028    0.0000 </r>
       <r>    1.3007    0.0000 </r>
       <r>    1.5023    0.0000 </r>
       <r>    1.7101    0.0000 </r>
       <r>    1.7399    0.0000 </r>
       <r>    1.8376    0.0000 </r>
       <r>    1.9888    0.0000 </r>
       <r>    2.1800    0.0000 </r>
       <r>    2.2585    0.0000 </r>
       <r>    2.4923    0.0000 </r>
       <r>    2.7208    0.0000 </r>
       <r>    2.7956    0.0000 </r>
       <r>    3.3466    0.0000 </r>
       <r>    3.4786    0.0000 </r>
       <r>    3.5240    0.0000 </r>
       <r>    4.0452    0.0000 </r>
       <r>    4.3603    0.0000 </r>
       <r>    4.6593    0.0000 </r>
       <r>    4.9873    0.0000 </r>
       <r>    5.0311    0.0000 </r>
       <r>    5.0728    0.0000 </r>
       <r>    5.1848    0.0000 </r>
       <r>    5.7105    0.0000 </r>
       <r>    5.9161    0.0000 </r>
       <r>    6.0644    0.0000 </r>
       <r>    6.2304    0.0000 </r>
      </set>
      <set comment="kpoint 10">
       <r>   -7.0444    1.0000 </r>
       <r>   -6.8020    1.0000 </r>
       <r>   -5.7714    1.0000 </r>
       <r>   -5.5370    1.0000 </r>
       <r>   -5.4181    1.0000 </r>
       <r>   -5.1238    1.0000 </r>
       <r>   -4.9345    1.0000 </r>
       <r>   -4.8939    1.0000 </r>
       <r>   -3.7095    1.0000 </r>
       <r>   -3.5059    1.0000 </r>
       <r>   -3.4746    1.0000 </r>
       <r>   -3.3677    1.0000 </r>
       <r>   -3.2648    1.0000 </r>
       <r>   -3.1739    1.0000 </r>
       <r>   -3.0939    1.0000 </r>
       <r>   -3.0704    1.0000 </r>
       <r>   -3.0151    1.0000 </r>
       <r>   -2.9336    1.0000 </r>
       <r>   -2.8968    1.0000 </r>
       <r>   -2.8552    1.0000 </r>
       <r>   -2.7870    1.0000 </r>
       <r>   -2.7533    1.0000 </r>
       <r>   -2.6894    1.0000 </r>
       <r>   -2.6473    1.0000 </r>
       <r>   -2.5924    1.0000 </r>
       <r>   -2.5501    1.0000 </r>
       <r>   -2.5222    1.0000 </r>
       <r>   -2.4780    1.0000 </r>
       <r>   -2.4108    1.0000 </r>
       <r>   -2.3658    1.0000 </r>
       <r>   -2.3558    1.0000 </r>
       <r>   -2.3260    1.0000 </r>
       <r>   -2.2189    1.0000 </r>
       <r>   -2.2025    1.0000 </r>
       <r>   -2.1600    1.0000 </r>
       <r>   -2.1171    1.0000 </r>
       <r>   -2.0823    1.0000 </r>
       <r>   -2.0602    1.0000 </r>
       <r>   -2.0215    1.0000 </r>
       <r>   -1.9872    1.0000 </r>
       <r>   -1.9414    1.0000 </r>
       <r>   -1.9042    1.0000 </r>
       <r>   -1.8647    1.0000 </r>
       <r>   -1.8286    1.0000 </r>
       <r>   -1.7945    1.0000 </r>
       <r>   -1.7449    1.0000 </r>
       <r>   -1.6716    1.0000 </r>
       <r>   -1.6377    1.0000 </r>
       <r>   -1.5718    1.0000 </r>
       <r>   -1.5155    1.0000 </r>
       <r>   -1.4729    1.0000 </r>
       <r>   -1.4326    1.0000 </r>
       <r>   -1.4163    1.0000 </r>
       <r>   -1.3526    1.0000 </r>
       <r>   -1.3307    1.0000 </r>
       <r>   -1.2742    1.0000 </r>
       <r>   -1.2597    1.0000 </r>
       <r>   -1.2287    1.0000 </r>
       <r>   -1.2144    1.0000 </r>
       <r>   -1.1635    1.0000 </r>
       <r>   -1.1393    1.0000 </r>
       <r>   -1.0836    1.0000 </r>
       <r>   -1.0527    1.0000 </r>
       <r>   -1.0165    1.0000 </r>
       <r>   -0.9945    1.0000 </r>
       <r>   -0.9587    1.0000 </r>
       <r>   -0.9348    1.0000 </r>
       <r>   -0.9231    1.0000 </r>
       <r>   -0.8850    1.0000 </r>
       <r>   -0.8580    1.0000 </r>
       <r>   -0.8268    1.0000 </r>
       <r>   -0.7831    1.0000 </r>
       <r>   -0.7495    1.0000 </r>
       <r>   -0.6929    1.0000 </r>
       <r>   -0.6676    1.0000 </r>
       <r>   -0.6476    1.0000 </r>
       <r>   -0.5979    1.0000 </r>
       <r>   -0.5489    1.0000 </r>
       <r>   -0.5328    1.0000 </r>
       <r>   -0.4876    1.0000 </r>
       <r>   -0.4502    1.0000 </r>
       <r>   -0.4357    1.0000 </r>
       <r>   -0.3799    1.0000 </r>
       <r>   -0.3211    1.0000 </r>
       <r>   -0.2702    1.0000 </r>
       <r>   -0.1722    1.0000 </r>
       <r>   -0.0908    1.0000 </r>
       <r>   -0.0314    1.0000 </r>
       <r>    0.0079    1.0000 </r>
       <r>    0.3068    1.0000 </r>
       <r>    0.4996    1.0000 </r>
       <r>    0.5825    0.9779 </r>
       <r>    0.6513    0.1091 </r>
       <r>    0.7861    0.0000 </r>
       <r>    0.9900    0.0000 </r>
       <r>    1.4901    0.0000 </r>
       <r>    1.5995    0.0000 </r>
       <r>    1.6752    0.0000 </r>
       <r>    1.8708    0.0000 </r>
       <r>    2.0084    0.0000 </r>
       <r>    2.1214    0.0000 </r>
       <r>    2.2613    0.0000 </r>
       <r>    2.3478    0.0000 </r>
       <r>    2.6806    0.0000 </r>
       <r>    2.7314    0.0000 </r>
       <r>    3.1316    0.0000 </r>
       <r>    3.2341    0.0000 </r>
       <r>    3.6742    0.0000 </r>
       <r>    3.7472    0.0000 </r>
       <r>    4.1856    0.0000 </r>
       <r>    4.2978    0.0000 </r>
       <r>    4.6264    0.0000 </r>
       <r>    4.7754    0.0000 </r>
       <r>    4.9229    0.0000 </r>
       <r>    5.1785    0.0000 </r>
       <r>    5.4849    0.0000 </r>
       <r>    5.6174    0.0000 </r>
       <r>    5.7549    0.0000 </r>
       <r>    5.9254    0.0000 </r>
       <r>    6.1058    0.0000 </r>
      </set>
      <set comment="kpoint 11">
       <r>   -6.8082    1.0000 </r>
       <r>   -6.4085    1.0000 </r>
       <r>   -6.2410    1.0000 </r>
       <r>   -5.5843    1.0000 </r>
       <r>   -5.4100    1.0000 </r>
       <r>   -5.3662    1.0000 </r>
       <r>   -5.1014    1.0000 </r>
       <r>   -5.0313    1.0000 </r>
       <r>   -3.6171    1.0000 </r>
       <r>   -3.4771    1.0000 </r>
       <r>   -3.4262    1.0000 </r>
       <r>   -3.4024    1.0000 </r>
       <r>   -3.3327    1.0000 </r>
       <r>   -3.2768    1.0000 </r>
       <r>   -3.1468    1.0000 </r>
       <r>   -3.0636    1.0000 </r>
       <r>   -2.9906    1.0000 </r>
       <r>   -2.9334    1.0000 </r>
       <r>   -2.8845    1.0000 </r>
       <r>   -2.8612    1.0000 </r>
       <r>   -2.8012    1.0000 </r>
       <r>   -2.7605    1.0000 </r>
       <r>   -2.6918    1.0000 </r>
       <r>   -2.6522    1.0000 </r>
       <r>   -2.5833    1.0000 </r>
       <r>   -2.5196    1.0000 </r>
       <r>   -2.4835    1.0000 </r>
       <r>   -2.4477    1.0000 </r>
       <r>   -2.3666    1.0000 </r>
       <r>   -2.3248    1.0000 </r>
       <r>   -2.2975    1.0000 </r>
       <r>   -2.2685    1.0000 </r>
       <r>   -2.2456    1.0000 </r>
       <r>   -2.2027    1.0000 </r>
       <r>   -2.1598    1.0000 </r>
       <r>   -2.1357    1.0000 </r>
       <r>   -2.0895    1.0000 </r>
       <r>   -2.0367    1.0000 </r>
       <r>   -2.0056    1.0000 </r>
       <r>   -1.9508    1.0000 </r>
       <r>   -1.8997    1.0000 </r>
       <r>   -1.8729    1.0000 </r>
       <r>   -1.8371    1.0000 </r>
       <r>   -1.8043    1.0000 </r>
       <r>   -1.7577    1.0000 </r>
       <r>   -1.7102    1.0000 </r>
       <r>   -1.6568    1.0000 </r>
       <r>   -1.6032    1.0000 </r>
       <r>   -1.5767    1.0000 </r>
       <r>   -1.5409    1.0000 </r>
       <r>   -1.4985    1.0000 </r>
       <r>   -1.4565    1.0000 </r>
       <r>   -1.4088    1.0000 </r>
       <r>   -1.3654    1.0000 </r>
       <r>   -1.3315    1.0000 </r>
       <r>   -1.2963    1.0000 </r>
       <r>   -1.2525    1.0000 </r>
       <r>   -1.2338    1.0000 </r>
       <r>   -1.1650    1.0000 </r>
       <r>   -1.1523    1.0000 </r>
       <r>   -1.1198    1.0000 </r>
       <r>   -1.1043    1.0000 </r>
       <r>   -1.0676    1.0000 </r>
       <r>   -1.0299    1.0000 </r>
       <r>   -1.0129    1.0000 </r>
       <r>   -1.0038    1.0000 </r>
       <r>   -0.9567    1.0000 </r>
       <r>   -0.9351    1.0000 </r>
       <r>   -0.9022    1.0000 </r>
       <r>   -0.8435    1.0000 </r>
       <r>   -0.8232    1.0000 </r>
       <r>   -0.7622    1.0000 </r>
       <r>   -0.7297    1.0000 </r>
       <r>   -0.6902    1.0000 </r>
       <r>   -0.6737    1.0000 </r>
       <r>   -0.6478    1.0000 </r>
       <r>   -0.6118    1.0000 </r>
       <r>   -0.5850    1.0000 </r>
       <r>   -0.5386    1.0000 </r>
       <r>   -0.5023    1.0000 </r>
       <r>   -0.4643    1.0000 </r>
       <r>   -0.4263    1.0000 </r>
       <r>   -0.4039    1.0000 </r>
       <r>   -0.3148    1.0000 </r>
       <r>   -0.3007    1.0000 </r>
       <r>   -0.2142    1.0000 </r>
       <r>   -0.1512    1.0000 </r>
       <r>   -0.0973    1.0000 </r>
       <r>   -0.0708    1.0000 </r>
       <r>    0.0508    1.0000 </r>
       <r>    0.5031    1.0000 </r>
       <r>    0.6557    0.0752 </r>
       <r>    0.7417    0.0000 </r>
       <r>    0.8562    0.0000 </r>
       <r>    1.1548    0.0000 </r>
       <r>    1.3419    0.0000 </r>
       <r>    1.4991    0.0000 </r>
       <r>    1.5094    0.0000 </r>
       <r>    1.8715    0.0000 </r>
       <r>    2.3605    0.0000 </r>
       <r>    2.5412    0.0000 </r>
       <r>    2.7627    0.0000 </r>
       <r>    2.8790    0.0000 </r>
       <r>    2.9854    0.0000 </r>
       <r>    3.1945    0.0000 </r>
       <r>    3.2223    0.0000 </r>
       <r>    3.4050    0.0000 </r>
       <r>    3.7348    0.0000 </r>
       <r>    3.9847    0.0000 </r>
       <r>    4.3494    0.0000 </r>
       <r>    4.4355    0.0000 </r>
       <r>    4.6136    0.0000 </r>
       <r>    4.7908    0.0000 </r>
       <r>    4.9120    0.0000 </r>
       <r>    4.9833    0.0000 </r>
       <r>    5.2736    0.0000 </r>
       <r>    5.3259    0.0000 </r>
       <r>    5.5293    0.0000 </r>
       <r>    5.6916    0.0000 </r>
       <r>    5.8292    0.0000 </r>
      </set>
     </set>
    </set>
   </array>
  </eigenvalues>
  <separator name="orbital magnetization" >
   <v name="MAGDIPOLOUT">      0.00000000      0.00000000      0.00000000</v>
  </separator>
 </calculation>
 <structure name="finalpos" >
  <crystal>
   <varray name="basis" >
    <v>       7.12360001       0.00000000       0.00000000 </v>
    <v>      -2.52484214       9.05736979       0.00000000 </v>
    <v>       0.00000000       0.00000000      16.18589973 </v>
   </varray>
   <i name="volume">   1044.33172306 </i>
   <varray name="rec_basis" >
    <v>       0.14037846       0.03913205       0.00000000 </v>
    <v>       0.00000000       0.11040733       0.00000000 </v>
    <v>       0.00000000       0.00000000       0.06178217 </v>
   </varray>
  </crystal>
  <varray name="positions" >
   <v>       0.18663999       0.86427999       0.05988000 </v>
   <v>       0.28696001       0.38490000       0.08790000 </v>
   <v>       0.62568998       0.19158000       0.09918000 </v>
   <v>       0.72549999       0.71184999       0.12715000 </v>
   <v>       0.86900344       0.00008542       0.26002683 </v>
   <v>       0.98436457       0.53532830       0.28358803 </v>
   <v>       0.31980933       0.34454500       0.29977286 </v>
   <v>       0.42192048       0.85196683       0.32583810 </v>
   <v>       0.94466001       0.29256999       0.00000000 </v>
   <v>       0.64916003       0.46002001       0.01303000 </v>
   <v>       0.40053001       0.66846001       0.02812000 </v>
   <v>       0.90309000       0.01169000       0.08416000 </v>
   <v>       0.00918000       0.56448001       0.10290000 </v>
   <v>       0.51166999       0.90785003       0.15886000 </v>
   <v>       0.26289999       0.11626000       0.17392001 </v>
   <v>       0.96789002       0.28365001       0.18714000 </v>
   <v>       0.63076864       0.43436778       0.19189004 </v>
   <v>       0.34090028       0.60587761       0.21122044 </v>
   <v>       0.09682632       0.81231210       0.22626438 </v>
   <v>       0.59238258       0.15162976       0.27621688 </v>
   <v>       0.69945367       0.70182975       0.29538738 </v>
   <v>       0.20893275       0.05303813       0.34208360 </v>
   <v>       0.95581402       0.25595850       0.35588934 </v>
   <v>       0.67006620       0.41083508       0.36733735 </v>
  </varray>
  <varray name="selective"  type="logical" >
   <v type="logical" >  F  F  F </v>
   <v type="logical" >  F  F  F </v>
   <v type="logical" >  F  F  F </v>
   <v type="logical" >  F  F  F </v>
   <v type="logical" >  T  T  T </v>
   <v type="logical" >  T  T  T </v>
   <v type="logical" >  T  T  T </v>
   <v type="logical" >  T  T  T </v>
   <v type="logical" >  F  F  F </v>
   <v type="logical" >  F  F  F </v>
   <v type="logical" >  F  F  F </v>
   <v type="logical" >  F  F  F </v>
   <v type="logical" >  F  F  F </v>
   <v type="logical" >  F  F  F </v>
   <v type="logical" >  F  F  F </v>
   <v type="logical" >  F  F  F </v>
   <v type="logical" >  T  T  T </v>
   <v type="logical" >  T  T  T </v>
   <v type="logical" >  T  T  T </v>
   <v type="logical" >  T  T  T </v>
   <v type="logical" >  T  T  T </v>
   <v type="logical" >  T  T  T </v>
   <v type="logical" >  T  T  T </v>
   <v type="logical" >  T  T  T </v>
  </varray>
  <nose>
   <v>      -3.00000000       0.00000000       0.00010000       0.00010000 </v>
  </nose>
 </structure>
</modeling>
